 Entering Gaussian System, Link 0=g16
 Input=RW03_Azidobocphenylalanine_1.com
 Output=RW03_Azidobocphenylalanine_1.log
 Initial command:
 /software/g16/l1.exe "/home/slin/ajr348/Jonas/Pharma/Gau-3593486.inp" -scrdir="/home/slin/ajr348/Jonas/Pharma/"
 Entering Link 1 = /software/g16/l1.exe PID=   3593487.
  
 Copyright (c) 1988-2019, Gaussian, Inc.  All Rights Reserved.
  
 This is part of the Gaussian(R) 16 program.  It is based on
 the Gaussian(R) 09 system (copyright 2009, Gaussian, Inc.),
 the Gaussian(R) 03 system (copyright 2003, Gaussian, Inc.),
 the Gaussian(R) 98 system (copyright 1998, Gaussian, Inc.),
 the Gaussian(R) 94 system (copyright 1995, Gaussian, Inc.),
 the Gaussian 92(TM) system (copyright 1992, Gaussian, Inc.),
 the Gaussian 90(TM) system (copyright 1990, Gaussian, Inc.),
 the Gaussian 88(TM) system (copyright 1988, Gaussian, Inc.),
 the Gaussian 86(TM) system (copyright 1986, Carnegie Mellon
 University), and the Gaussian 82(TM) system (copyright 1983,
 Carnegie Mellon University). Gaussian is a federally registered
 trademark of Gaussian, Inc.
  
 This software contains proprietary and confidential information,
 including trade secrets, belonging to Gaussian, Inc.
  
 This software is provided under written license and may be
 used, copied, transmitted, or stored only in accord with that
 written license.
  
 The following legend is applicable only to US Government
 contracts under FAR:
  
                    RESTRICTED RIGHTS LEGEND
  
 Use, reproduction and disclosure by the US Government is
 subject to restrictions as set forth in subparagraphs (a)
 and (c) of the Commercial Computer Software - Restricted
 Rights clause in FAR 52.227-19.
  
 Gaussian, Inc.
 340 Quinnipiac St., Bldg. 40, Wallingford CT 06492
  
  
 ---------------------------------------------------------------
 Warning -- This program may not be used in any manner that
 competes with the business of Gaussian, Inc. or will provide
 assistance to any competitor of Gaussian, Inc.  The licensee
 of this program is prohibited from giving any competitor of
 Gaussian, Inc. access to this program.  By using this program,
 the user acknowledges that Gaussian, Inc. is engaged in the
 business of creating and licensing software in the field of
 computational chemistry and represents and warrants to the
 licensee that it is not a competitor of Gaussian, Inc. and that
 it will not use this program in any manner prohibited above.
 ---------------------------------------------------------------
  

 Cite this work as:
 Gaussian 16, Revision C.01,
 M. J. Frisch, G. W. Trucks, H. B. Schlegel, G. E. Scuseria, 
 M. A. Robb, J. R. Cheeseman, G. Scalmani, V. Barone, 
 G. A. Petersson, H. Nakatsuji, X. Li, M. Caricato, A. V. Marenich, 
 J. Bloino, B. G. Janesko, R. Gomperts, B. Mennucci, H. P. Hratchian, 
 J. V. Ortiz, A. F. Izmaylov, J. L. Sonnenberg, D. Williams-Young, 
 F. Ding, F. Lipparini, F. Egidi, J. Goings, B. Peng, A. Petrone, 
 T. Henderson, D. Ranasinghe, V. G. Zakrzewski, J. Gao, N. Rega, 
 G. Zheng, W. Liang, M. Hada, M. Ehara, K. Toyota, R. Fukuda, 
 J. Hasegawa, M. Ishida, T. Nakajima, Y. Honda, O. Kitao, H. Nakai, 
 T. Vreven, K. Throssell, J. A. Montgomery, Jr., J. E. Peralta, 
 F. Ogliaro, M. J. Bearpark, J. J. Heyd, E. N. Brothers, K. N. Kudin, 
 V. N. Staroverov, T. A. Keith, R. Kobayashi, J. Normand, 
 K. Raghavachari, A. P. Rendell, J. C. Burant, S. S. Iyengar, 
 J. Tomasi, M. Cossi, J. M. Millam, M. Klene, C. Adamo, R. Cammi, 
 J. W. Ochterski, R. L. Martin, K. Morokuma, O. Farkas, 
 J. B. Foresman, and D. J. Fox, Gaussian, Inc., Wallingford CT, 2019.
 
 ******************************************
 Gaussian 16:  ES64L-G16RevC.01  3-Jul-2019
                12-Nov-2022 
 ******************************************
 %nprocshared=8
 Will use up to    8 processors via shared memory.
 %mem=8GB
 %chk=RW03_Azidobocphenylalanine_1.chk
 ----------------------------------------------------------------------
 # B3LYP/6-31+G(d,p) empiricaldispersion=GD3 int=(grid=ultrafine) opt f
 req=noraman
 ----------------------------------------------------------------------
 1/18=20,19=15,26=4,38=1/1,3;
 2/9=110,12=2,17=6,18=5,40=1/2;
 3/5=1,6=6,7=111,11=2,25=1,30=1,71=1,74=-5,75=-5,124=31/1,2,3;
 4//1;
 5/5=2,38=5/2;
 6/7=2,8=2,9=2,10=2,28=1/1;
 7//1,2,3,16;
 1/18=20,19=15,26=4/3(2);
 2/9=110/2;
 99//99;
 2/9=110/2;
 3/5=1,6=6,7=111,11=2,25=1,30=1,71=1,74=-5,75=-5,124=31/1,2,3;
 4/5=5,16=3,69=1/1;
 5/5=2,38=5/2;
 7//1,2,3,16;
 1/18=20,19=15,26=4/3(-5);
 2/9=110/2;
 6/7=2,8=2,9=2,10=2,19=2,28=1/1;
 99/9=1/99;
 -------------
 Molecule Name
 -------------
 Symbolic Z-matrix:
 Charge =  0 Multiplicity = 1
 C                     2.9744    0.0147    10.1359 
 C                     2.8838   -1.2226    9.6381 
 C                     3.9704   -2.0883    9.665 
 C                     5.1327   -1.7166    10.1757 
 C                     5.2622   -0.5111    10.723 
 C                     4.155     0.3546    10.6972 
 C                     1.803     0.9463    10.0574 
 C                     1.8293    1.8169    8.7919 
 C                     0.5055    2.5431    8.5554 
 C                     3.2048    3.7707    9.4929 
 C                     2.2557    4.9811    11.3853 
 C                     0.9525    4.7952    12.1143 
 C                     2.2385    6.3358    10.7283 
 C                     3.4191    4.7561    12.2917 
 O                    -0.5444    2.1127    8.9618 
 O                     0.635     3.5897    7.7619 
 O                     4.1894    4.4896    9.3886 
 O                     2.203     3.9467    10.3585 
 N                     2.9675    2.6972    8.7285 
 H                     1.9715   -1.5161    9.322 
 H                     3.8283   -3.0566    9.451 
 H                     6.0634   -0.1712    11.1821 
 H                     4.2524    1.2471    11.0961 
 H                     0.9857    0.3912    10.0746 
 H                     1.6391    1.5161    10.8595 
 H                     1.8912    1.1737    7.978 
 H                    -0.1146    3.9858    7.5156 
 H                     3.5303    2.6898    8.107 
 H                     0.8023    5.3797    13.0852 
 H                     0.9513    3.7413    12.4078 
 H                     0.4012    4.6705    11.9132 
 H                     2.3382    7.018     11.3219 
 H                     3.175     6.48      10.4509 
 H                     1.5015    6.5045    9.8703 
 H                     3.3928    5.2818    13.0099 
 H                     3.3584    3.7169    12.7841 
 H                     4.3899    4.7928    11.8487 
 N                     8.6627   -1.591     11.1848 
 N                     7.5773   -2.0473    10.649 
 N                     6.4403   -2.5254    10.0876 
 

 GradGradGradGradGradGradGradGradGradGradGradGradGradGradGradGradGradGrad
 Berny optimization.
 Initialization pass.
                           ----------------------------
                           !    Initial Parameters    !
                           ! (Angstroms and Degrees)  !
 --------------------------                            --------------------------
 ! Name  Definition              Value          Derivative Info.                !
 --------------------------------------------------------------------------------
 ! R1    R(1,2)                  1.3368         estimate D2E/DX2                !
 ! R2    R(1,6)                  1.3507         estimate D2E/DX2                !
 ! R3    R(1,7)                  1.4987         estimate D2E/DX2                !
 ! R4    R(2,3)                  1.3896         estimate D2E/DX2                !
 ! R5    R(2,20)                 1.0091         estimate D2E/DX2                !
 ! R6    R(3,4)                  1.3228         estimate D2E/DX2                !
 ! R7    R(3,21)                 1.0018         estimate D2E/DX2                !
 ! R8    R(4,5)                  1.3302         estimate D2E/DX2                !
 ! R9    R(4,40)                 1.54           estimate D2E/DX2                !
 ! R10   R(5,6)                  1.4057         estimate D2E/DX2                !
 ! R11   R(5,22)                 0.984          estimate D2E/DX2                !
 ! R12   R(6,23)                 0.9824         estimate D2E/DX2                !
 ! R13   R(7,8)                  1.5363         estimate D2E/DX2                !
 ! R14   R(7,24)                 0.9881         estimate D2E/DX2                !
 ! R15   R(7,25)                 0.9974         estimate D2E/DX2                !
 ! R16   R(8,9)                  1.5283         estimate D2E/DX2                !
 ! R17   R(8,19)                 1.4403         estimate D2E/DX2                !
 ! R18   R(8,26)                 1.0392         estimate D2E/DX2                !
 ! R19   R(9,15)                 1.2053         estimate D2E/DX2                !
 ! R20   R(9,16)                 1.3198         estimate D2E/DX2                !
 ! R21   R(10,17)                1.2236         estimate D2E/DX2                !
 ! R22   R(10,18)                1.3356         estimate D2E/DX2                !
 ! R23   R(10,19)                1.339          estimate D2E/DX2                !
 ! R24   R(11,12)                1.5048         estimate D2E/DX2                !
 ! R25   R(11,13)                1.5057         estimate D2E/DX2                !
 ! R26   R(11,14)                1.4919         estimate D2E/DX2                !
 ! R27   R(11,18)                1.4585         estimate D2E/DX2                !
 ! R28   R(12,29)                1.1432         estimate D2E/DX2                !
 ! R29   R(12,30)                1.094          estimate D2E/DX2                !
 ! R30   R(12,31)                0.5999         estimate D2E/DX2                !
 ! R31   R(13,32)                0.9098         estimate D2E/DX2                !
 ! R32   R(13,33)                0.9873         estimate D2E/DX2                !
 ! R33   R(13,34)                1.1436         estimate D2E/DX2                !
 ! R34   R(14,35)                0.8904         estimate D2E/DX2                !
 ! R35   R(14,36)                1.1516         estimate D2E/DX2                !
 ! R36   R(14,37)                1.0677         estimate D2E/DX2                !
 ! R37   R(16,27)                0.8829         estimate D2E/DX2                !
 ! R38   R(19,28)                0.8385         estimate D2E/DX2                !
 ! R39   R(38,39)                1.2936         estimate D2E/DX2                !
 ! R40   R(39,40)                1.3552         estimate D2E/DX2                !
 ! A1    A(2,1,6)              116.5459         estimate D2E/DX2                !
 ! A2    A(2,1,7)              120.1896         estimate D2E/DX2                !
 ! A3    A(6,1,7)              123.2644         estimate D2E/DX2                !
 ! A4    A(1,2,3)              121.094          estimate D2E/DX2                !
 ! A5    A(1,2,20)             116.5593         estimate D2E/DX2                !
 ! A6    A(3,2,20)             122.1277         estimate D2E/DX2                !
 ! A7    A(2,3,4)              121.2982         estimate D2E/DX2                !
 ! A8    A(2,3,21)             119.1515         estimate D2E/DX2                !
 ! A9    A(4,3,21)             118.5999         estimate D2E/DX2                !
 ! A10   A(3,4,5)              119.9345         estimate D2E/DX2                !
 ! A11   A(3,4,40)             125.1955         estimate D2E/DX2                !
 ! A12   A(5,4,40)             114.6334         estimate D2E/DX2                !
 ! A13   A(4,5,6)              118.2858         estimate D2E/DX2                !
 ! A14   A(4,5,22)             125.7513         estimate D2E/DX2                !
 ! A15   A(6,5,22)             115.9232         estimate D2E/DX2                !
 ! A16   A(1,6,5)              122.7589         estimate D2E/DX2                !
 ! A17   A(1,6,23)             118.947          estimate D2E/DX2                !
 ! A18   A(5,6,23)             118.2901         estimate D2E/DX2                !
 ! A19   A(1,7,8)              112.4588         estimate D2E/DX2                !
 ! A20   A(1,7,24)             107.2394         estimate D2E/DX2                !
 ! A21   A(1,7,25)             116.1932         estimate D2E/DX2                !
 ! A22   A(8,7,24)             110.2947         estimate D2E/DX2                !
 ! A23   A(8,7,25)             109.9684         estimate D2E/DX2                !
 ! A24   A(24,7,25)             99.8462         estimate D2E/DX2                !
 ! A25   A(7,8,9)              112.4525         estimate D2E/DX2                !
 ! A26   A(7,8,19)             113.3378         estimate D2E/DX2                !
 ! A27   A(7,8,26)             107.1829         estimate D2E/DX2                !
 ! A28   A(9,8,19)             112.7851         estimate D2E/DX2                !
 ! A29   A(9,8,26)             102.9729         estimate D2E/DX2                !
 ! A30   A(19,8,26)            107.2619         estimate D2E/DX2                !
 ! A31   A(8,9,15)             122.1855         estimate D2E/DX2                !
 ! A32   A(8,9,16)             112.6351         estimate D2E/DX2                !
 ! A33   A(15,9,16)            124.847          estimate D2E/DX2                !
 ! A34   A(17,10,18)           125.5489         estimate D2E/DX2                !
 ! A35   A(17,10,19)           124.4004         estimate D2E/DX2                !
 ! A36   A(18,10,19)           110.0408         estimate D2E/DX2                !
 ! A37   A(12,11,13)           108.2188         estimate D2E/DX2                !
 ! A38   A(12,11,14)           111.2474         estimate D2E/DX2                !
 ! A39   A(12,11,18)           102.836          estimate D2E/DX2                !
 ! A40   A(13,11,14)           114.1861         estimate D2E/DX2                !
 ! A41   A(13,11,18)           109.2994         estimate D2E/DX2                !
 ! A42   A(14,11,18)           110.4234         estimate D2E/DX2                !
 ! A43   A(11,12,29)           117.5211         estimate D2E/DX2                !
 ! A44   A(11,12,30)           104.4735         estimate D2E/DX2                !
 ! A45   A(11,12,31)           131.2331         estimate D2E/DX2                !
 ! A46   A(29,12,30)           105.3406         estimate D2E/DX2                !
 ! A47   A(29,12,31)           105.6778         estimate D2E/DX2                !
 ! A48   A(30,12,31)            83.6088         estimate D2E/DX2                !
 ! A49   A(11,13,32)           112.8737         estimate D2E/DX2                !
 ! A50   A(11,13,33)           104.0735         estimate D2E/DX2                !
 ! A51   A(11,13,34)           117.8694         estimate D2E/DX2                !
 ! A52   A(32,13,33)            88.2725         estimate D2E/DX2                !
 ! A53   A(32,13,34)           116.7138         estimate D2E/DX2                !
 ! A54   A(33,13,34)           112.2688         estimate D2E/DX2                !
 ! A55   A(11,14,35)           112.2079         estimate D2E/DX2                !
 ! A56   A(11,14,36)           110.7803         estimate D2E/DX2                !
 ! A57   A(11,14,37)           116.8574         estimate D2E/DX2                !
 ! A58   A(35,14,36)           100.7393         estimate D2E/DX2                !
 ! A59   A(35,14,37)           109.9506         estimate D2E/DX2                !
 ! A60   A(36,14,37)           104.8538         estimate D2E/DX2                !
 ! A61   A(9,16,27)            116.1172         estimate D2E/DX2                !
 ! A62   A(10,18,11)           121.5095         estimate D2E/DX2                !
 ! A63   A(8,19,10)            127.2224         estimate D2E/DX2                !
 ! A64   A(8,19,28)            123.8941         estimate D2E/DX2                !
 ! A65   A(10,19,28)           108.1349         estimate D2E/DX2                !
 ! A66   A(4,40,39)            120.2245         estimate D2E/DX2                !
 ! A67   L(38,39,40,10,-1)     180.004          estimate D2E/DX2                !
 ! A68   L(38,39,40,10,-2)     179.9954         estimate D2E/DX2                !
 ! D1    D(6,1,2,3)             -2.0147         estimate D2E/DX2                !
 ! D2    D(6,1,2,20)           172.7188         estimate D2E/DX2                !
 ! D3    D(7,1,2,3)            178.066          estimate D2E/DX2                !
 ! D4    D(7,1,2,20)            -7.2004         estimate D2E/DX2                !
 ! D5    D(2,1,6,5)              2.4002         estimate D2E/DX2                !
 ! D6    D(2,1,6,23)          -178.3447         estimate D2E/DX2                !
 ! D7    D(7,1,6,5)           -177.6833         estimate D2E/DX2                !
 ! D8    D(7,1,6,23)             1.5718         estimate D2E/DX2                !
 ! D9    D(2,1,7,8)            -91.9249         estimate D2E/DX2                !
 ! D10   D(2,1,7,24)            29.4905         estimate D2E/DX2                !
 ! D11   D(2,1,7,25)           140.1114         estimate D2E/DX2                !
 ! D12   D(6,1,7,8)             88.1615         estimate D2E/DX2                !
 ! D13   D(6,1,7,24)          -150.4231         estimate D2E/DX2                !
 ! D14   D(6,1,7,25)           -39.8022         estimate D2E/DX2                !
 ! D15   D(1,2,3,4)             -0.4161         estimate D2E/DX2                !
 ! D16   D(1,2,3,21)           168.2719         estimate D2E/DX2                !
 ! D17   D(20,2,3,4)          -174.8527         estimate D2E/DX2                !
 ! D18   D(20,2,3,21)           -6.1647         estimate D2E/DX2                !
 ! D19   D(2,3,4,5)              2.5932         estimate D2E/DX2                !
 ! D20   D(2,3,4,40)          -171.5088         estimate D2E/DX2                !
 ! D21   D(21,3,4,5)          -166.1555         estimate D2E/DX2                !
 ! D22   D(21,3,4,40)           19.7425         estimate D2E/DX2                !
 ! D23   D(3,4,5,6)             -2.1842         estimate D2E/DX2                !
 ! D24   D(3,4,5,22)           175.4237         estimate D2E/DX2                !
 ! D25   D(40,4,5,6)           172.5153         estimate D2E/DX2                !
 ! D26   D(40,4,5,22)           -9.8768         estimate D2E/DX2                !
 ! D27   D(3,4,40,39)          179.9993         estimate D2E/DX2                !
 ! D28   D(5,4,40,39)            5.6213         estimate D2E/DX2                !
 ! D29   D(4,5,6,1)             -0.3428         estimate D2E/DX2                !
 ! D30   D(4,5,6,23)          -179.6026         estimate D2E/DX2                !
 ! D31   D(22,5,6,1)          -178.1844         estimate D2E/DX2                !
 ! D32   D(22,5,6,23)            2.5559         estimate D2E/DX2                !
 ! D33   D(1,7,8,9)            167.7213         estimate D2E/DX2                !
 ! D34   D(1,7,8,19)           -62.8829         estimate D2E/DX2                !
 ! D35   D(1,7,8,26)            55.2614         estimate D2E/DX2                !
 ! D36   D(24,7,8,9)            48.0661         estimate D2E/DX2                !
 ! D37   D(24,7,8,19)          177.4618         estimate D2E/DX2                !
 ! D38   D(24,7,8,26)          -64.3939         estimate D2E/DX2                !
 ! D39   D(25,7,8,9)           -61.1028         estimate D2E/DX2                !
 ! D40   D(25,7,8,19)           68.2929         estimate D2E/DX2                !
 ! D41   D(25,7,8,26)         -173.5627         estimate D2E/DX2                !
 ! D42   D(7,8,9,15)           -26.7499         estimate D2E/DX2                !
 ! D43   D(7,8,9,16)           159.5727         estimate D2E/DX2                !
 ! D44   D(19,8,9,15)         -156.4307         estimate D2E/DX2                !
 ! D45   D(19,8,9,16)           29.8919         estimate D2E/DX2                !
 ! D46   D(26,8,9,15)           88.2885         estimate D2E/DX2                !
 ! D47   D(26,8,9,16)          -85.3889         estimate D2E/DX2                !
 ! D48   D(7,8,19,10)          -69.7947         estimate D2E/DX2                !
 ! D49   D(7,8,19,28)          121.3168         estimate D2E/DX2                !
 ! D50   D(9,8,19,10)           59.4318         estimate D2E/DX2                !
 ! D51   D(9,8,19,28)         -109.4567         estimate D2E/DX2                !
 ! D52   D(26,8,19,10)         172.1068         estimate D2E/DX2                !
 ! D53   D(26,8,19,28)           3.2183         estimate D2E/DX2                !
 ! D54   D(8,9,16,27)          172.8922         estimate D2E/DX2                !
 ! D55   D(15,9,16,27)          -0.5868         estimate D2E/DX2                !
 ! D56   D(17,10,18,11)         -6.1698         estimate D2E/DX2                !
 ! D57   D(19,10,18,11)        174.9353         estimate D2E/DX2                !
 ! D58   D(17,10,19,8)        -179.5422         estimate D2E/DX2                !
 ! D59   D(17,10,19,28)         -9.233          estimate D2E/DX2                !
 ! D60   D(18,10,19,8)          -0.6318         estimate D2E/DX2                !
 ! D61   D(18,10,19,28)        169.6773         estimate D2E/DX2                !
 ! D62   D(13,11,12,29)        -73.7728         estimate D2E/DX2                !
 ! D63   D(13,11,12,30)        169.9583         estimate D2E/DX2                !
 ! D64   D(13,11,12,31)         75.7511         estimate D2E/DX2                !
 ! D65   D(14,11,12,29)         52.4383         estimate D2E/DX2                !
 ! D66   D(14,11,12,30)        -63.8306         estimate D2E/DX2                !
 ! D67   D(14,11,12,31)       -158.0378         estimate D2E/DX2                !
 ! D68   D(18,11,12,29)        170.6413         estimate D2E/DX2                !
 ! D69   D(18,11,12,30)         54.3725         estimate D2E/DX2                !
 ! D70   D(18,11,12,31)        -39.8348         estimate D2E/DX2                !
 ! D71   D(12,11,13,32)         73.3968         estimate D2E/DX2                !
 ! D72   D(12,11,13,33)        167.5274         estimate D2E/DX2                !
 ! D73   D(12,11,13,34)        -67.408          estimate D2E/DX2                !
 ! D74   D(14,11,13,32)        -51.0793         estimate D2E/DX2                !
 ! D75   D(14,11,13,33)         43.0513         estimate D2E/DX2                !
 ! D76   D(14,11,13,34)        168.1159         estimate D2E/DX2                !
 ! D77   D(18,11,13,32)       -175.3141         estimate D2E/DX2                !
 ! D78   D(18,11,13,33)        -81.1835         estimate D2E/DX2                !
 ! D79   D(18,11,13,34)         43.8811         estimate D2E/DX2                !
 ! D80   D(12,11,14,35)        -56.1719         estimate D2E/DX2                !
 ! D81   D(12,11,14,36)         55.5558         estimate D2E/DX2                !
 ! D82   D(12,11,14,37)        175.5231         estimate D2E/DX2                !
 ! D83   D(13,11,14,35)         66.6726         estimate D2E/DX2                !
 ! D84   D(13,11,14,36)        178.4003         estimate D2E/DX2                !
 ! D85   D(13,11,14,37)        -61.6325         estimate D2E/DX2                !
 ! D86   D(18,11,14,35)       -169.6961         estimate D2E/DX2                !
 ! D87   D(18,11,14,36)        -57.9684         estimate D2E/DX2                !
 ! D88   D(18,11,14,37)         61.9988         estimate D2E/DX2                !
 ! D89   D(12,11,18,10)       -179.2814         estimate D2E/DX2                !
 ! D90   D(13,11,18,10)         65.9128         estimate D2E/DX2                !
 ! D91   D(14,11,18,10)        -60.5006         estimate D2E/DX2                !
 --------------------------------------------------------------------------------
 Trust Radius=3.00D-01 FncErr=1.00D-07 GrdErr=1.00D-06 EigMax=2.50D+02 EigMin=1.00D-04
 Number of steps in this run=    209 maximum allowed number of steps=    240.
 GradGradGradGradGradGradGradGradGradGradGradGradGradGradGradGradGradGrad

                          Input orientation:                          
 ---------------------------------------------------------------------
 Center     Atomic      Atomic             Coordinates (Angstroms)
 Number     Number       Type             X           Y           Z
 ---------------------------------------------------------------------
      1          6           0        2.974400    0.014700   10.135900
      2          6           0        2.883800   -1.222600    9.638100
      3          6           0        3.970400   -2.088300    9.665000
      4          6           0        5.132700   -1.716600   10.175700
      5          6           0        5.262200   -0.511100   10.723000
      6          6           0        4.155000    0.354600   10.697200
      7          6           0        1.803000    0.946300   10.057400
      8          6           0        1.829300    1.816900    8.791900
      9          6           0        0.505500    2.543100    8.555400
     10          6           0        3.204800    3.770700    9.492900
     11          6           0        2.255700    4.981100   11.385300
     12          6           0        0.952500    4.795200   12.114300
     13          6           0        2.238500    6.335800   10.728300
     14          6           0        3.419100    4.756100   12.291700
     15          8           0       -0.544400    2.112700    8.961800
     16          8           0        0.635000    3.589700    7.761900
     17          8           0        4.189400    4.489600    9.388600
     18          8           0        2.203000    3.946700   10.358500
     19          7           0        2.967500    2.697200    8.728500
     20          1           0        1.971500   -1.516100    9.322000
     21          1           0        3.828300   -3.056600    9.451000
     22          1           0        6.063400   -0.171200   11.182100
     23          1           0        4.252400    1.247100   11.096100
     24          1           0        0.985700    0.391200   10.074600
     25          1           0        1.639100    1.516100   10.859500
     26          1           0        1.891200    1.173700    7.978000
     27          1           0       -0.114600    3.985800    7.515600
     28          1           0        3.530300    2.689800    8.107000
     29          1           0        0.802300    5.379700   13.085200
     30          1           0        0.951300    3.741300   12.407800
     31          1           0        0.401200    4.670500   11.913200
     32          1           0        2.338200    7.018000   11.321900
     33          1           0        3.175000    6.480000   10.450900
     34          1           0        1.501500    6.504500    9.870300
     35          1           0        3.392800    5.281800   13.009900
     36          1           0        3.358400    3.716900   12.784100
     37          1           0        4.389900    4.792800   11.848700
     38          7           0        8.662700   -1.591000   11.184800
     39          7           0        7.577300   -2.047300   10.649000
     40          7           0        6.440300   -2.525400   10.087600
 ---------------------------------------------------------------------
                    Distance matrix (angstroms):
                    1          2          3          4          5
     1  C    0.000000
     2  C    1.336759   0.000000
     3  C    2.374104   1.389554   0.000000
     4  C    2.767172   2.364445   1.322844   0.000000
     5  C    2.419748   2.709248   2.296883   1.330240   0.000000
     6  C    1.350706   2.285870   2.658435   2.348985   1.405701
     7  C    1.498739   2.459282   3.749720   4.265200   3.812231
     8  C    2.522997   3.326648   4.538414   5.031200   4.575318
     9  C    3.871208   4.583563   5.889534   6.494721   6.054157
    10  C    3.817600   5.005714   5.911315   5.856063   4.907123
    11  C    5.171330   6.475578   7.475028   7.389144   6.296185
    12  C    5.554757   6.787886   7.905021   7.977204   6.976106
    13  C    6.391306   7.663834   8.665769   8.574550   7.484840
    14  C    5.227438   6.563002   7.351823   7.022088   5.796657
    15  O    4.261698   4.830545   6.206957   6.954607   6.610806
    16  O    4.887667   5.633423   6.854660   7.362918   6.855338
    17  O    4.696745   5.864816   6.587346   6.326631   5.285690
    18  O    4.013133   5.263471   6.326600   6.378834   5.418814
    19  N    3.029295   4.024824   4.978338   5.124852   4.420053
    20  H    2.002895   1.009135   2.107288   3.280578   3.715041
    21  H    3.260539   2.071387   1.001795   2.005555   3.186475
    22  H    3.266652   3.687714   3.218309   2.065746   0.983985
    23  H    2.018434   3.177774   3.640393   3.225768   2.061593
    24  H    2.024954   2.529361   3.901811   4.653026   4.418486
    25  H    2.135609   3.246779   4.455725   4.808656   4.153917
    26  H    2.678271   3.079520   4.220152   4.867344   4.662319
    27  H    5.672524   6.373605   7.629013   8.193147   7.708405
    28  H    3.403178   4.250777   5.044927   5.124799   4.482041
    29  H    6.496123   7.733402   8.803729   8.807669   7.757076
    30  H    4.810614   6.003840   7.114925   7.228765   6.285325
    31  H    5.608621   6.787342   7.967118   8.136402   7.203810
    32  H    7.131448   8.428544   9.398622   9.242091   8.099124
    33  H    6.476077   7.750838   8.640953   8.431641   7.301090
    34  H    6.660141   7.853200   8.942809   8.992517   8.005536
    35  H    6.014755   7.344068   8.114207   7.748390   6.502481
    36  H    4.568009   5.875476   6.618435   6.282898   5.074305
    37  H    5.269494   6.583322   7.231463   6.761876   5.491763
    38  N    6.002934   5.993637   4.957295   3.673548   3.597616
    39  N    5.069695   4.871447   3.738939   2.511861   2.779402
    40  N    4.297314   3.814188   2.543630   1.540044   2.418482
                    6          7          8          9         10
     6  C    0.000000
     7  C    2.508258   0.000000
     8  C    3.343257   1.536270   0.000000
     9  C    4.763999   2.547407   1.528314   0.000000
    10  C    3.744724   3.203270   2.490128   3.110005   0.000000
    11  C    5.048299   4.271752   4.113357   4.124970   2.438655
    12  C    5.655361   4.446147   4.547240   4.235272   3.604746
    13  C    6.280819   5.448530   4.933310   4.702059   3.006607
    14  C    4.738901   4.703026   4.838901   5.229376   2.974932
    15  O    5.309133   2.840971   2.398086   1.205278   4.133707
    16  O    5.610014   3.690679   2.372777   1.319767   3.103707
    17  O    4.337262   4.324023   3.615169   4.249024   1.223574
    18  O    4.102219   3.041885   2.670194   2.846536   1.335606
    19  N    3.282333   2.487506   1.440294   2.472884   1.339037
    20  H    3.187219   2.575387   3.377886   4.383370   5.431435
    21  H    3.646373   4.526894   5.308617   6.572651   6.855839
    22  H    2.038034   4.545851   5.252923   6.719913   5.153985
    23  H    0.982428   2.677487   3.391965   4.708931   3.168008
    24  H    3.230082   0.988135   2.095137   2.677543   4.084581
    25  H    2.775820   0.997447   2.098005   2.765620   3.066306
    26  H    3.631771   2.093656   1.039217   2.031948   3.280987
    27  H    6.444973   4.401874   3.179908   1.883372   3.869677
    28  H    3.542957   3.134871   2.030873   3.061372   1.787460
    29  H    6.495750   5.461136   5.672803   5.352894   4.611454
    30  H    4.965842   3.749906   4.189145   4.058991   3.684531
    31  H    5.847791   4.390752   4.463745   3.976371   3.811517
    32  H    6.934833   6.225025   5.806145   5.571090   3.826381
    33  H    6.208187   5.714811   5.129102   5.120384   2.873840
    34  H    6.748785   5.569515   4.821202   4.291115   3.243042
    35  H    5.496074   5.480993   5.678168   5.973236   3.832500
    36  H    4.036680   4.186930   4.678227   5.234381   3.295222
    37  H    4.591160   4.969544   4.975608   5.567364   2.828240
    38  N    4.933809   7.400298   8.002194   9.515484   7.835753
    39  N    4.181338   6.531016   7.170800   8.687076   7.369155
    40  N    3.726742   5.792941   6.464962   7.953564   7.103732
                   11         12         13         14         15
    11  C    0.000000
    12  C    1.504769   0.000000
    13  C    1.505708   2.438901   0.000000
    14  C    1.491873   2.473280   2.516642   0.000000
    15  O    4.684189   4.401678   5.357203   5.812498   0.000000
    16  O    4.206149   4.527408   4.348771   5.443417   2.238811
    17  O    2.822690   4.242682   3.001543   3.015356   5.314196
    18  O    1.458451   2.316579   2.417811   2.423074   3.586437
    19  N    3.575115   4.463796   4.215454   4.139977   3.567844
    20  H    6.822872   6.976232   7.981310   7.089087   4.430314
    21  H    8.415415   8.775771   9.611251   8.323179   6.788334
    22  H    6.409841   7.187171   7.561537   5.701037   7.335459
    23  H    4.244196   4.951271   5.485065   3.799596   5.321070
    24  H    4.939435   4.853524   6.110246   5.467113   2.557947
    25  H    3.558495   3.577491   4.858601   3.964492   2.953789
    26  H    5.122387   5.577221   5.859355   5.811719   2.789575
    27  H    4.645807   4.789767   4.623962   5.990954   2.405146
    28  H    4.197846   5.209243   4.672609   4.668370   4.203202
    29  H    2.271764   1.143174   2.920920   2.804668   5.430407
    30  H    2.069799   1.094006   3.347990   2.670830   4.094432
    31  H    1.953029   0.599936   2.748251   3.042747   4.018366
    32  H    2.039556   2.736586   0.909779   2.687945   6.159661
    33  H    1.991210   3.247300   0.987308   2.533764   5.926606
    34  H    2.277013   2.873786   1.143588   3.549263   4.929400
    35  H    2.005677   2.644606   2.765687   0.890429   6.475481
    36  H    2.184214   2.720242   3.512709   1.151555   5.693442
    37  H    2.192032   3.447647   2.874833   1.067731   6.313830
    38  N    9.180542  10.054586  10.213369   8.307000  10.170045
    39  N    8.846467   9.636124   9.939086   8.140967   9.279777
    40  N    8.691516   9.370947   9.827842   8.185716   8.459635
                   16         17         18         19         20
    16  O    0.000000
    17  O    4.011201   0.000000
    18  O    3.054244   2.276232   0.000000
    19  N    2.677952   2.267481   2.191486   0.000000
    20  H    5.503575   6.402495   5.565079   4.369915   0.000000
    21  H    7.564623   7.555092   7.246473   5.862525   2.416089
    22  H    7.437047   5.334002   5.704218   4.881851   4.691735
    23  H    5.448876   3.665151   3.468708   3.059295   3.998151
    24  H    3.962572   5.247016   3.768819   3.325230   2.275083
    25  H    3.860461   4.184409   2.544956   2.775032   3.415938
    26  H    2.731628   4.273957   3.667905   2.010653   3.007957
    27  H    0.882870   4.720843   3.668089   3.554006   6.155144
    28  H    3.051504   2.305687   2.900134   0.838487   4.647115
    29  H    5.618684   5.092109   3.383835   5.555604   7.942340
    30  H    4.659122   4.490079   2.410098   4.323477   6.180876
    31  H    4.296054   4.555962   2.487461   4.541159   6.888699
    32  H    5.227593   3.682037   3.221692   5.078489   8.772966
    33  H    4.694268   2.473698   2.714946   4.161646   8.164585
    34  H    3.700302   3.393621   2.696810   4.236555   8.053046
    35  H    6.165239   3.791565   3.198130   5.019106   7.863342
    36  H    5.714506   3.580090   2.696533   4.200057   6.426034
    37  H    5.678790   2.486810   2.778329   4.018757   7.213535
    38  N   10.148885   7.759539   8.548486   7.540383   6.946063
    39  N    9.397162   7.469775   8.055776   6.888313   5.785162
    40  N    8.746704   7.400363   7.740554   6.417402   4.644890
                   21         22         23         24         25
    21  H    0.000000
    22  H    4.039544   0.000000
    23  H    4.626883   2.301889   0.000000
    24  H    4.511826   5.227417   3.528081   0.000000
    25  H    5.261754   4.746102   2.637741   1.519342   0.000000
    26  H    4.880320   5.429757   3.911931   2.414118   2.912702
    27  H    8.299857   8.300094   6.276237   4.547559   4.511823
    28  H    5.908998   4.904911   3.396694   3.953480   3.539840
    29  H    9.671362   7.881209   5.739172   5.829449   4.536671
    30  H    7.951807   6.553134   4.340375   4.082668   2.796751
    31  H    8.804290   7.485792   5.217189   4.694092   3.548650
    32  H   10.354624   8.098225   6.084278   6.877463   5.565380
    33  H    9.611105   7.288070   5.381479   6.481367   5.212125
    34  H    9.849083   8.191259   6.058902   6.138422   5.087395
    35  H    9.076582   6.340991   4.547565   6.190968   4.677626
    36  H    7.563773   5.000075   3.122258   4.902181   3.391695
    37  H    8.226630   5.280744   3.627299   5.840384   4.391148
    38  N    5.340924   2.961790   5.245324   8.006122   7.687057
    39  N    4.063114   2.468976   4.701907   7.051625   6.928517
    40  N    2.740434   2.623403   4.476129   6.185417   6.323059
                   26         27         28         29         30
    26  H    0.000000
    27  H    3.484961   0.000000
    28  H    2.236481   3.913396   0.000000
    29  H    6.705194   5.814130   6.281721   0.000000
    30  H    5.205681   5.012938   5.123844   1.779165   0.000000
    31  H    5.471152   4.480374   5.310518   1.427386   1.187709
    32  H    6.748134   5.449622   5.521775   2.855213   3.720139
    33  H    5.993346   5.065421   4.470539   3.712129   4.034201
    34  H    5.670105   3.807918   4.666604   3.477016   3.791688
    35  H    6.667181   6.645961   5.547594   2.593443   2.948998
    36  H    5.631975   6.315942   4.791633   3.064182   2.436458
    37  H    5.858644   6.302184   4.377424   3.839825   3.638985
    38  N    7.986260  11.027453   7.357964  10.676519   9.454885
    39  N    7.059803  10.265565   6.729048  10.343888   8.972466
    40  N    6.231217   9.590497   6.291994  10.161853   8.647773
                   31         32         33         34         35
    31  H    0.000000
    32  H    3.100381   0.000000
    33  H    3.620301   1.322240   0.000000
    34  H    2.957644   1.752396   1.771524   0.000000
    35  H    3.244397   2.641196   2.834008   3.863819   0.000000
    36  H    3.226895   3.751813   3.621074   4.439484   1.581481
    37  H    3.991096   3.072215   2.505289   3.897029   1.606772
    38  N   10.391792  10.683304   9.787467  10.887967   8.850888
    39  N    9.910774  10.491932   9.598663  10.519268   8.763538
    40  N    9.569980  10.460746   9.586000  10.294565   8.875780
                   36         37         38         39         40
    36  H    0.000000
    37  H    1.759695   0.000000
    38  N    7.672494   7.710414   0.000000
    39  N    7.455452   7.641058   1.293594   0.000000
    40  N    7.465623   7.801389   2.648776   1.355182   0.000000
 Stoichiometry    C14H18N4O4
 Framework group  C1[X(C14H18N4O4)]
 Deg. of freedom   114
 Full point group                 C1      NOp   1
 Largest Abelian subgroup         C1      NOp   1
 Largest concise Abelian subgroup C1      NOp   1
                         Standard orientation:                         
 ---------------------------------------------------------------------
 Center     Atomic      Atomic             Coordinates (Angstroms)
 Number     Number       Type             X           Y           Z
 ---------------------------------------------------------------------
      1          6           0        1.306649    1.049814   -0.653695
      2          6           0        2.238337    2.008082   -0.629101
      3          6           0        3.577980    1.701398   -0.423771
      4          6           0        3.976672    0.453868   -0.237679
      5          6           0        3.095040   -0.540524   -0.296393
      6          6           0        1.743309   -0.220454   -0.511738
      7          6           0       -0.137673    1.407351   -0.833475
      8          6           0       -0.863332    1.609327    0.505462
      9          6           0       -2.236046    2.258744    0.333247
     10          6           0       -1.611957   -0.694529    1.082125
     11          6           0       -3.092144   -1.668575   -0.593381
     12          6           0       -3.686995   -1.073660   -1.841002
     13          6           0       -4.216473   -2.005877    0.349629
     14          6           0       -2.198871   -2.819129   -0.915831
     15          8           0       -2.493893    2.977250   -0.599469
     16          8           0       -3.029163    2.051924    1.367643
     17          8           0       -1.616667   -1.675847    1.812964
     18          8           0       -2.317847   -0.561514   -0.043872
     19          7           0       -0.906871    0.419551    1.316006
     20          1           0        1.929335    2.943547   -0.847679
     21          1           0        4.270444    2.407138   -0.585072
     22          1           0        3.305435   -1.499779   -0.234837
     23          1           0        1.091296   -0.954376   -0.549185
     24          1           0       -0.169480    2.237097   -1.369125
     25          1           0       -0.670673    0.803780   -1.422128
     26          1           0       -0.331384    2.325910    1.037920
     27          1           0       -3.797594    2.486586    1.361229
     28          1           0       -0.588249    0.369104    2.089955
     29          1           0       -4.218792   -1.782948   -2.562770
     30          1           0       -2.827366   -0.686772   -2.396163
     31          1           0       -3.916577   -0.530067   -1.949268
     32          1           0       -4.691409   -2.736006    0.086863
     33          1           0       -3.790245   -2.568625    1.039862
     34          1           0       -4.811936   -1.140986    0.802598
     35          1           0       -2.617773   -3.449175   -1.385327
     36          1           0       -1.380211   -2.504186   -1.661945
     37          1           0       -1.670523   -3.262779   -0.100925
     38          7           0        5.982114   -2.534936    0.497311
     39          7           0        5.696282   -1.282921    0.341934
     40          7           0        5.396944    0.028738    0.179248
 ---------------------------------------------------------------------
 Rotational constants (GHZ):           0.4489157           0.1491115           0.1260642
 Standard basis: 6-31+G(d,p) (6D, 7F)
 There are   508 symmetry adapted cartesian basis functions of A   symmetry.
 There are   508 symmetry adapted basis functions of A   symmetry.
   508 basis functions,   830 primitive gaussians,   508 cartesian basis functions
    81 alpha electrons       81 beta electrons
       nuclear repulsion energy      1833.9115433911 Hartrees.
 NAtoms=   40 NActive=   40 NUniq=   40 SFac= 1.00D+00 NAtFMM=   60 NAOKFM=F Big=F
 Integral buffers will be    131072 words long.
 Raffenetti 2 integral format.
 Two-electron integral symmetry is turned on.
 Nuclear repulsion after empirical dispersion term =     1833.8655576514 Hartrees.
 One-electron integrals computed using PRISM.
 NBasis=   508 RedAO= T EigKep=  1.43D-06  NBF=   508
 NBsUse=   507 1.00D-06 EigRej=  6.42D-07 NBFU=   507
 ExpMin= 4.38D-02 ExpMax= 5.48D+03 ExpMxC= 8.25D+02 IAcc=3 IRadAn=         5 AccDes= 0.00D+00
 Harris functional with IExCor=  402 and IRadAn=       5 diagonalized for initial guess.
 HarFok:  IExCor=  402 AccDes= 0.00D+00 IRadAn=         5 IDoV= 1 UseB2=F ITyADJ=14
 ICtDFT=  3500011 ScaDFX=  1.000000  1.000000  1.000000  1.000000
 FoFCou: FMM=F IPFlag=           0 FMFlag=      100000 FMFlg1=           0
         NFxFlg=           0 DoJE=T BraDBF=F KetDBF=T FulRan=T
         wScrn=  0.000000 ICntrl=       500 IOpCl=  0 I1Cent=   200000004 NGrid=           0
         NMat0=    1 NMatS0=      1 NMatT0=    0 NMatD0=    1 NMtDS0=    0 NMtDT0=    0
 Petite list used in FoFCou.
 Requested convergence on RMS density matrix=1.00D-08 within 128 cycles.
 Requested convergence on MAX density matrix=1.00D-06.
 Requested convergence on             energy=1.00D-06.
 No special actions if energy rises.
 SCF Done:  E(RB3LYP) =  -1063.53451650     A.U. after   19 cycles
            NFock= 19  Conv=0.17D-08     -V/T= 2.0051

 **********************************************************************

            Population analysis using the SCF Density.

 **********************************************************************

 Orbital symmetries:
       Occupied  (A) (A) (A) (A) (A) (A) (A) (A) (A) (A) (A) (A)
                 (A) (A) (A) (A) (A) (A) (A) (A) (A) (A) (A) (A)
                 (A) (A) (A) (A) (A) (A) (A) (A) (A) (A) (A) (A)
                 (A) (A) (A) (A) (A) (A) (A) (A) (A) (A) (A) (A)
                 (A) (A) (A) (A) (A) (A) (A) (A) (A) (A) (A) (A)
                 (A) (A) (A) (A) (A) (A) (A) (A) (A) (A) (A) (A)
                 (A) (A) (A) (A) (A) (A) (A) (A) (A)
       Virtual   (A) (A) (A) (A) (A) (A) (A) (A) (A) (A) (A) (A)
                 (A) (A) (A) (A) (A) (A) (A) (A) (A) (A) (A) (A)
                 (A) (A) (A) (A) (A) (A) (A) (A) (A) (A) (A) (A)
                 (A) (A) (A) (A) (A) (A) (A) (A) (A) (A) (A) (A)
                 (A) (A) (A) (A) (A) (A) (A) (A) (A) (A) (A) (A)
                 (A) (A) (A) (A) (A) (A) (A) (A) (A) (A) (A) (A)
                 (A) (A) (A) (A) (A) (A) (A) (A) (A) (A) (A) (A)
                 (A) (A) (A) (A) (A) (A) (A) (A) (A) (A) (A) (A)
                 (A) (A) (A) (A) (A) (A) (A) (A) (A) (A) (A) (A)
                 (A) (A) (A) (A) (A) (A) (A) (A) (A) (A) (A) (A)
                 (A) (A) (A) (A) (A) (A) (A) (A) (A) (A) (A) (A)
                 (A) (A) (A) (A) (A) (A) (A) (A) (A) (A) (A) (A)
                 (A) (A) (A) (A) (A) (A) (A) (A) (A) (A) (A) (A)
                 (A) (A) (A) (A) (A) (A) (A) (A) (A) (A) (A) (A)
                 (A) (A) (A) (A) (A) (A) (A) (A) (A) (A) (A) (A)
                 (A) (A) (A) (A) (A) (A) (A) (A) (A) (A) (A) (A)
                 (A) (A) (A) (A) (A) (A) (A) (A) (A) (A) (A) (A)
                 (A) (A) (A) (A) (A) (A) (A) (A) (A) (A) (A) (A)
                 (A) (A) (A) (A) (A) (A) (A) (A) (A) (A) (A) (A)
                 (A) (A) (A) (A) (A) (A) (A) (A) (A) (A) (A) (A)
                 (A) (A) (A) (A) (A) (A) (A) (A) (A) (A) (A) (A)
                 (A) (A) (A) (A) (A) (A) (A) (A) (A) (A) (A) (A)
                 (A) (A) (A) (A) (A) (A) (A) (A) (A) (A) (A) (A)
                 (A) (A) (A) (A) (A) (A) (A) (A) (A) (A) (A) (A)
                 (A) (A) (A) (A) (A) (A) (A) (A) (A) (A) (A) (A)
                 (A) (A) (A) (A) (A) (A) (A) (A) (A) (A) (A) (A)
                 (A) (A) (A) (A) (A) (A) (A) (A) (A) (A) (A) (A)
                 (A) (A) (A) (A) (A) (A) (A) (A) (A) (A) (A) (A)
                 (A) (A) (A) (A) (A) (A) (A) (A) (A) (A) (A) (A)
                 (A) (A) (A) (A) (A) (A) (A) (A) (A) (A) (A) (A)
                 (A) (A) (A) (A) (A) (A) (A) (A) (A) (A) (A) (A)
                 (A) (A) (A) (A) (A) (A) (A) (A) (A) (A) (A) (A)
                 (A) (A) (A) (A) (A) (A) (A) (A) (A) (A) (A) (A)
                 (A) (A) (A) (A) (A) (A) (A) (A) (A) (A) (A) (A)
                 (A) (A) (A) (A) (A) (A) (A) (A) (A) (A) (A) (A)
                 (A) (A) (A) (A) (A) (A)
 The electronic state is 1-A.
 Alpha  occ. eigenvalues --  -19.22429 -19.19846 -19.16742 -19.13037 -14.53113
 Alpha  occ. eigenvalues --  -14.45751 -14.42742 -14.36360 -10.34842 -10.34256
 Alpha  occ. eigenvalues --  -10.27141 -10.26591 -10.25720 -10.20550 -10.20398
 Alpha  occ. eigenvalues --  -10.20101 -10.19845 -10.19476 -10.18972 -10.17458
 Alpha  occ. eigenvalues --  -10.16970 -10.15556  -1.15547  -1.12333  -1.06531
 Alpha  occ. eigenvalues --   -1.05583  -1.02579  -0.97636  -0.93654  -0.89857
 Alpha  occ. eigenvalues --   -0.84787  -0.83435  -0.78991  -0.78257  -0.77631
 Alpha  occ. eigenvalues --   -0.73343  -0.72799  -0.69358  -0.66864  -0.66149
 Alpha  occ. eigenvalues --   -0.64046  -0.59887  -0.59600  -0.57015  -0.54534
 Alpha  occ. eigenvalues --   -0.52284  -0.51543  -0.50884  -0.50710  -0.50171
 Alpha  occ. eigenvalues --   -0.49664  -0.49309  -0.47554  -0.47174  -0.46746
 Alpha  occ. eigenvalues --   -0.45701  -0.45558  -0.45148  -0.44362  -0.43568
 Alpha  occ. eigenvalues --   -0.43055  -0.41911  -0.41062  -0.40957  -0.40552
 Alpha  occ. eigenvalues --   -0.39946  -0.38240  -0.37816  -0.37731  -0.36991
 Alpha  occ. eigenvalues --   -0.35910  -0.35170  -0.33328  -0.31738  -0.31606
 Alpha  occ. eigenvalues --   -0.31011  -0.30838  -0.28119  -0.27747  -0.27084
 Alpha  occ. eigenvalues --   -0.25135
 Alpha virt. eigenvalues --   -0.10032  -0.07431  -0.03607  -0.02234  -0.01253
 Alpha virt. eigenvalues --   -0.00232  -0.00084   0.00372   0.00923   0.01591
 Alpha virt. eigenvalues --    0.02013   0.02538   0.03122   0.03326   0.03825
 Alpha virt. eigenvalues --    0.04182   0.05049   0.05118   0.05830   0.06122
 Alpha virt. eigenvalues --    0.06296   0.06806   0.07257   0.07358   0.07693
 Alpha virt. eigenvalues --    0.08186   0.08683   0.09038   0.09866   0.09985
 Alpha virt. eigenvalues --    0.10025   0.10437   0.10915   0.11302   0.11584
 Alpha virt. eigenvalues --    0.12229   0.12372   0.12761   0.12848   0.13388
 Alpha virt. eigenvalues --    0.13584   0.14251   0.14430   0.14902   0.15140
 Alpha virt. eigenvalues --    0.15517   0.16028   0.16034   0.16708   0.16856
 Alpha virt. eigenvalues --    0.17107   0.17626   0.17962   0.18234   0.18457
 Alpha virt. eigenvalues --    0.18890   0.19401   0.19674   0.19918   0.20215
 Alpha virt. eigenvalues --    0.20468   0.20728   0.21307   0.21474   0.21648
 Alpha virt. eigenvalues --    0.21854   0.22182   0.22400   0.22740   0.23265
 Alpha virt. eigenvalues --    0.23809   0.24126   0.24491   0.24794   0.25091
 Alpha virt. eigenvalues --    0.25604   0.25950   0.26216   0.26705   0.27276
 Alpha virt. eigenvalues --    0.27524   0.27601   0.27799   0.28406   0.28899
 Alpha virt. eigenvalues --    0.29166   0.29648   0.30218   0.30461   0.30615
 Alpha virt. eigenvalues --    0.31099   0.31198   0.31372   0.31769   0.32257
 Alpha virt. eigenvalues --    0.32481   0.32693   0.32916   0.33822   0.33951
 Alpha virt. eigenvalues --    0.34198   0.34742   0.35056   0.35649   0.35980
 Alpha virt. eigenvalues --    0.36248   0.36797   0.37425   0.37597   0.38305
 Alpha virt. eigenvalues --    0.38622   0.38719   0.39374   0.39637   0.40453
 Alpha virt. eigenvalues --    0.41364   0.42115   0.42785   0.43385   0.44138
 Alpha virt. eigenvalues --    0.44935   0.46423   0.47422   0.47990   0.48825
 Alpha virt. eigenvalues --    0.49082   0.50569   0.51583   0.52343   0.52743
 Alpha virt. eigenvalues --    0.53941   0.57061   0.61548   0.63098   0.64526
 Alpha virt. eigenvalues --    0.66151   0.67041   0.67315   0.67936   0.69600
 Alpha virt. eigenvalues --    0.70170   0.70962   0.71620   0.72532   0.73086
 Alpha virt. eigenvalues --    0.73224   0.73934   0.75093   0.75459   0.75970
 Alpha virt. eigenvalues --    0.76478   0.77775   0.78075   0.79460   0.80339
 Alpha virt. eigenvalues --    0.80770   0.82237   0.83770   0.84584   0.84722
 Alpha virt. eigenvalues --    0.86163   0.86883   0.87382   0.87809   0.88168
 Alpha virt. eigenvalues --    0.89205   0.89859   0.90341   0.90598   0.91537
 Alpha virt. eigenvalues --    0.92254   0.92844   0.93426   0.95772   0.96295
 Alpha virt. eigenvalues --    0.96922   0.97372   0.98157   0.98504   1.01167
 Alpha virt. eigenvalues --    1.01318   1.02474   1.03027   1.03961   1.04379
 Alpha virt. eigenvalues --    1.04954   1.06161   1.06954   1.08789   1.09554
 Alpha virt. eigenvalues --    1.10306   1.10442   1.11205   1.12134   1.12919
 Alpha virt. eigenvalues --    1.14121   1.14452   1.16011   1.18102   1.18455
 Alpha virt. eigenvalues --    1.19143   1.19857   1.21455   1.22341   1.23418
 Alpha virt. eigenvalues --    1.23611   1.24648   1.24823   1.25304   1.25775
 Alpha virt. eigenvalues --    1.26976   1.28020   1.28749   1.30015   1.30369
 Alpha virt. eigenvalues --    1.31117   1.31394   1.32692   1.33831   1.34691
 Alpha virt. eigenvalues --    1.34762   1.36297   1.36756   1.37444   1.38142
 Alpha virt. eigenvalues --    1.38717   1.39811   1.40615   1.41115   1.41990
 Alpha virt. eigenvalues --    1.43072   1.43733   1.44696   1.45063   1.47286
 Alpha virt. eigenvalues --    1.48226   1.50116   1.50849   1.51839   1.52089
 Alpha virt. eigenvalues --    1.52492   1.52744   1.53680   1.55430   1.56002
 Alpha virt. eigenvalues --    1.58394   1.60705   1.63121   1.64042   1.66268
 Alpha virt. eigenvalues --    1.67826   1.68536   1.69828   1.71701   1.72501
 Alpha virt. eigenvalues --    1.74203   1.74905   1.76697   1.77465   1.79197
 Alpha virt. eigenvalues --    1.80529   1.81200   1.81642   1.82205   1.84473
 Alpha virt. eigenvalues --    1.84693   1.85336   1.85946   1.87844   1.88105
 Alpha virt. eigenvalues --    1.88713   1.89195   1.90218   1.91149   1.92099
 Alpha virt. eigenvalues --    1.93289   1.93864   1.95053   1.95772   1.96410
 Alpha virt. eigenvalues --    1.97004   1.98376   1.99262   1.99665   2.00532
 Alpha virt. eigenvalues --    2.02812   2.03698   2.04486   2.06024   2.07444
 Alpha virt. eigenvalues --    2.08959   2.09941   2.10267   2.10712   2.11484
 Alpha virt. eigenvalues --    2.12622   2.13792   2.15244   2.16209   2.16267
 Alpha virt. eigenvalues --    2.17220   2.18921   2.20214   2.21114   2.22823
 Alpha virt. eigenvalues --    2.23713   2.25321   2.28320   2.29394   2.30080
 Alpha virt. eigenvalues --    2.31528   2.32382   2.33821   2.34732   2.37322
 Alpha virt. eigenvalues --    2.38597   2.40170   2.41750   2.41897   2.42911
 Alpha virt. eigenvalues --    2.43927   2.44490   2.46670   2.47476   2.47571
 Alpha virt. eigenvalues --    2.48656   2.50504   2.53425   2.53896   2.54683
 Alpha virt. eigenvalues --    2.56049   2.56530   2.57156   2.57621   2.60373
 Alpha virt. eigenvalues --    2.60473   2.62512   2.62873   2.64854   2.65101
 Alpha virt. eigenvalues --    2.65565   2.66594   2.67836   2.69257   2.69699
 Alpha virt. eigenvalues --    2.70446   2.70693   2.71594   2.72799   2.74999
 Alpha virt. eigenvalues --    2.77241   2.79672   2.79848   2.80899   2.81741
 Alpha virt. eigenvalues --    2.82797   2.86128   2.87731   2.88204   2.89905
 Alpha virt. eigenvalues --    2.90953   2.91207   2.94447   2.95654   2.97804
 Alpha virt. eigenvalues --    2.98448   2.99256   3.00930   3.05055   3.07646
 Alpha virt. eigenvalues --    3.08696   3.10051   3.11353   3.12097   3.14995
 Alpha virt. eigenvalues --    3.18998   3.20467   3.21510   3.24565   3.26519
 Alpha virt. eigenvalues --    3.28016   3.30876   3.32457   3.33564   3.37178
 Alpha virt. eigenvalues --    3.38330   3.47297   3.47515   3.51973   3.52119
 Alpha virt. eigenvalues --    3.56800   3.57897   3.64251   3.64548   3.68595
 Alpha virt. eigenvalues --    3.69004   3.73225   3.76914   3.79613   3.84655
 Alpha virt. eigenvalues --    3.98737   4.02675   4.04691   4.06674   4.13740
 Alpha virt. eigenvalues --    4.27432   4.31544   4.32974   4.38228   4.41857
 Alpha virt. eigenvalues --    4.43180   4.49140   4.51281   4.52973   4.56237
 Alpha virt. eigenvalues --    4.59869   4.61573   4.61831   4.65690   4.68952
 Alpha virt. eigenvalues --    4.77536   4.84354   4.93052   4.95526   5.02612
 Alpha virt. eigenvalues --    7.71366
          Condensed to atoms (all electrons):
               1          2          3          4          5          6
     1  C   23.632771  -1.073944  -0.967475  -2.678086  -1.183933  -4.657053
     2  C   -1.073944  20.905959   0.971918  -2.892912   2.074174 -13.051177
     3  C   -0.967475   0.971918  12.456297  -3.807717  -5.732800   2.615866
     4  C   -2.678086  -2.892912  -3.807717  17.920331   2.241396  -2.735114
     5  C   -1.183933   2.074174  -5.732800   2.241396  17.778646  -8.891013
     6  C   -4.657053 -13.051177   2.615866  -2.735114  -8.891013  30.820252
     7  C   -7.638863  -2.157346   0.647765  -1.825052  -1.174526   3.381877
     8  C    0.816023   1.593919   0.081903  -0.100334   0.239498  -2.235452
     9  C   -0.947606  -0.125386  -0.027090  -0.041395  -0.004487   0.272156
    10  C    0.236812  -0.098959  -0.012279   0.033222  -0.006659   0.116523
    11  C    0.570841  -0.087547   0.016427  -0.046628  -0.304180  -0.029626
    12  C   -0.062992   0.036342  -0.005075   0.005201   0.056283  -0.036818
    13  C    0.075164  -0.011784  -0.000487  -0.002732  -0.028692  -0.028389
    14  C   -0.278068   0.024180  -0.005023   0.029150   0.169518   0.034521
    15  O    0.051411   0.008265  -0.006073   0.000881   0.003559   0.004795
    16  O    0.030255  -0.026267  -0.002459   0.000558   0.000106   0.027532
    17  O   -0.051371  -0.005588  -0.001164   0.006286   0.017779   0.047708
    18  O    0.011322  -0.018984   0.001205   0.003830   0.024484   0.069203
    19  N   -0.273328  -0.242255   0.014465   0.003741  -0.069402   0.413484
    20  H    0.000423   0.298399  -0.004278   0.042548   0.000568  -0.009161
    21  H    0.033219  -0.005995   0.227172   0.018522   0.042539   0.010874
    22  H    0.131775  -0.025813  -0.015466  -0.177562   0.389734   0.004100
    23  H    0.057663   0.088387  -0.026871   0.019968   0.081572   0.089707
    24  H   -0.091298   0.105785   0.062981   0.001942  -0.010757  -0.121058
    25  H   -0.229956  -0.065832  -0.015330  -0.000024   0.000122   0.113276
    26  H   -0.047904   0.004975  -0.000384  -0.001866  -0.001406   0.001578
    27  H    0.000626   0.000580   0.000056   0.000002  -0.000039  -0.000545
    28  H    0.013104  -0.005787  -0.000864  -0.000157   0.001150   0.011649
    29  H    0.000384  -0.000004  -0.000001  -0.000011  -0.000156  -0.000708
    30  H    0.008698   0.001528  -0.000232  -0.000011   0.000463  -0.007092
    31  H   -0.021353   0.001630  -0.000012   0.000207   0.003238   0.015801
    32  H   -0.000143  -0.000044  -0.000002   0.000002  -0.000009   0.000260
    33  H    0.001743  -0.000032   0.000008  -0.000006  -0.000314  -0.001793
    34  H   -0.000310  -0.000065  -0.000003   0.000004   0.000033   0.000501
    35  H    0.000301   0.000373  -0.000000   0.000161   0.002577  -0.003309
    36  H    0.022053   0.003475   0.000137  -0.000343   0.001986  -0.019181
    37  H   -0.007661  -0.001097  -0.000070  -0.000334  -0.003196   0.008983
    38  N    0.016281  -0.214197  -0.554186  -0.333884   0.998155   0.078615
    39  N   -0.086939  -0.959045  -1.717031   2.355716   0.798312  -0.239229
    40  N    0.009630   1.123842   1.986973  -1.266578  -1.930384   0.106275
               7          8          9         10         11         12
     1  C   -7.638863   0.816023  -0.947606   0.236812   0.570841  -0.062992
     2  C   -2.157346   1.593919  -0.125386  -0.098959  -0.087547   0.036342
     3  C    0.647765   0.081903  -0.027090  -0.012279   0.016427  -0.005075
     4  C   -1.825052  -0.100334  -0.041395   0.033222  -0.046628   0.005201
     5  C   -1.174526   0.239498  -0.004487  -0.006659  -0.304180   0.056283
     6  C    3.381877  -2.235452   0.272156   0.116523  -0.029626  -0.036818
     7  C   15.201982  -1.973077   0.823776  -0.133265  -0.353990   0.078357
     8  C   -1.973077   9.997772  -0.744924  -0.607819   0.232193  -0.093336
     9  C    0.823776  -0.744924   5.996198  -0.246621   0.054811  -0.014172
    10  C   -0.133265  -0.607819  -0.246621   5.667457  -0.402640   0.159687
    11  C   -0.353990   0.232193   0.054811  -0.402640   9.290052  -0.664797
    12  C    0.078357  -0.093336  -0.014172   0.159687  -0.664797   5.526873
    13  C   -0.066322   0.028212   0.035682  -0.013691   0.229544  -0.246441
    14  C    0.139225  -0.080770  -0.076125   0.079497  -1.296952   0.068938
    15  O   -0.046592  -0.142403   0.497497   0.010154  -0.010093   0.006419
    16  O    0.064059  -0.322640   0.207809   0.035037  -0.050879   0.010513
    17  O   -0.014672   0.062154   0.004539   0.377926   0.098362  -0.001362
    18  O   -0.095869   0.076129  -0.100129   0.138938  -0.144725  -0.051151
    19  N    0.400161  -0.730228  -0.063828   0.187113  -0.021379   0.009308
    20  H   -0.076208   0.038328   0.000495   0.000635  -0.000004   0.000066
    21  H   -0.009651  -0.000650   0.000215  -0.000021   0.000001  -0.000001
    22  H   -0.001186   0.001031  -0.000000   0.002730   0.000256   0.000054
    23  H   -0.011251  -0.027454   0.004191  -0.008280  -0.010133  -0.000818
    24  H    0.335731   0.042610  -0.022572   0.001269  -0.000405  -0.000049
    25  H    0.625557  -0.143253   0.035999  -0.004541   0.001147  -0.004991
    26  H    0.076233   0.250067   0.007739   0.009474  -0.001251   0.000617
    27  H   -0.006455   0.047465  -0.006600  -0.005722   0.001663  -0.000974
    28  H   -0.017228  -0.033767   0.001078   0.005964  -0.000793   0.000689
    29  H   -0.001160   0.000604   0.001044  -0.004108   0.022801   0.419625
    30  H   -0.014539   0.010418   0.003077  -0.012860  -0.072153   0.483788
    31  H    0.032227  -0.006209  -0.029371   0.009736  -0.509980   0.353495
    32  H    0.000357  -0.002794   0.001072   0.001575  -0.003213  -0.005392
    33  H   -0.000308  -0.002182  -0.002056   0.020904  -0.121258   0.041867
    34  H    0.000448  -0.000733   0.000658  -0.006617  -0.089574  -0.026409
    35  H    0.000976   0.000261  -0.000316  -0.006109  -0.121227   0.023826
    36  H   -0.009293   0.001540  -0.002271   0.010729  -0.153102  -0.004805
    37  H    0.002813  -0.001661   0.000604   0.015794  -0.030074   0.010147
    38  N    0.010547  -0.000406   0.000015  -0.000029  -0.000055   0.000003
    39  N   -0.014825  -0.003793  -0.000188  -0.000192  -0.000458   0.000024
    40  N    0.025593   0.005163   0.000812   0.000172   0.000422  -0.000020
              13         14         15         16         17         18
     1  C    0.075164  -0.278068   0.051411   0.030255  -0.051371   0.011322
     2  C   -0.011784   0.024180   0.008265  -0.026267  -0.005588  -0.018984
     3  C   -0.000487  -0.005023  -0.006073  -0.002459  -0.001164   0.001205
     4  C   -0.002732   0.029150   0.000881   0.000558   0.006286   0.003830
     5  C   -0.028692   0.169518   0.003559   0.000106   0.017779   0.024484
     6  C   -0.028389   0.034521   0.004795   0.027532   0.047708   0.069203
     7  C   -0.066322   0.139225  -0.046592   0.064059  -0.014672  -0.095869
     8  C    0.028212  -0.080770  -0.142403  -0.322640   0.062154   0.076129
     9  C    0.035682  -0.076125   0.497497   0.207809   0.004539  -0.100129
    10  C   -0.013691   0.079497   0.010154   0.035037   0.377926   0.138938
    11  C    0.229544  -1.296952  -0.010093  -0.050879   0.098362  -0.144725
    12  C   -0.246441   0.068938   0.006419   0.010513  -0.001362  -0.051151
    13  C    5.681210  -0.366746  -0.001930   0.001175  -0.074790  -0.063213
    14  C   -0.366746   6.390182   0.000551   0.015012  -0.063466   0.106980
    15  O   -0.001930   0.000551   8.172269  -0.153773   0.000037  -0.002323
    16  O    0.001175   0.015012  -0.153773   8.361217   0.000459   0.010117
    17  O   -0.074790  -0.063466   0.000037   0.000459   8.317469  -0.182448
    18  O   -0.063213   0.106980  -0.002323   0.010117  -0.182448   8.687808
    19  N   -0.015990  -0.014877   0.021284   0.025584  -0.067128  -0.276838
    20  H   -0.000002  -0.000022  -0.000241   0.000006  -0.000006  -0.000087
    21  H    0.000000   0.000001  -0.000001   0.000000   0.000000   0.000001
    22  H    0.000004  -0.000371  -0.000000  -0.000000  -0.000076  -0.000044
    23  H    0.001165   0.005919  -0.000006   0.000038   0.001759   0.002522
    24  H    0.000119  -0.000196  -0.000569  -0.000749   0.000039  -0.004214
    25  H   -0.000900   0.003114  -0.000710   0.001122   0.001058   0.008434
    26  H   -0.000424  -0.000291  -0.000314   0.005375   0.000179  -0.001958
    27  H    0.000712  -0.000391   0.000503   0.221060   0.000091   0.000852
    28  H    0.000150   0.000913  -0.000876   0.000624  -0.008315   0.032296
    29  H    0.004479  -0.040779  -0.000018  -0.000018   0.000026   0.000624
    30  H    0.003105  -0.040892  -0.000351  -0.000103  -0.000082  -0.010611
    31  H   -0.146273   0.229003   0.001935   0.002180   0.002496   0.069863
    32  H    0.379425  -0.018598   0.000008   0.000108   0.000447   0.001865
    33  H    0.457610  -0.014472   0.000005  -0.000157  -0.018712  -0.009805
    34  H    0.467758   0.011709   0.000004   0.001127   0.002612   0.005058
    35  H   -0.016027   0.449842   0.000001  -0.000002   0.001777   0.009647
    36  H    0.001790   0.487489   0.000019  -0.000005   0.001214   0.000990
    37  H   -0.018660   0.411763  -0.000001  -0.000013  -0.010914  -0.003899
    38  N   -0.000014   0.000015   0.000000   0.000000  -0.000006   0.000007
    39  N   -0.000045   0.000366   0.000003  -0.000000   0.000002   0.000024
    40  N    0.000059  -0.000287  -0.000005  -0.000001  -0.000012  -0.000037
              19         20         21         22         23         24
     1  C   -0.273328   0.000423   0.033219   0.131775   0.057663  -0.091298
     2  C   -0.242255   0.298399  -0.005995  -0.025813   0.088387   0.105785
     3  C    0.014465  -0.004278   0.227172  -0.015466  -0.026871   0.062981
     4  C    0.003741   0.042548   0.018522  -0.177562   0.019968   0.001942
     5  C   -0.069402   0.000568   0.042539   0.389734   0.081572  -0.010757
     6  C    0.413484  -0.009161   0.010874   0.004100   0.089707  -0.121058
     7  C    0.400161  -0.076208  -0.009651  -0.001186  -0.011251   0.335731
     8  C   -0.730228   0.038328  -0.000650   0.001031  -0.027454   0.042610
     9  C   -0.063828   0.000495   0.000215  -0.000000   0.004191  -0.022572
    10  C    0.187113   0.000635  -0.000021   0.002730  -0.008280   0.001269
    11  C   -0.021379  -0.000004   0.000001   0.000256  -0.010133  -0.000405
    12  C    0.009308   0.000066  -0.000001   0.000054  -0.000818  -0.000049
    13  C   -0.015990  -0.000002   0.000000   0.000004   0.001165   0.000119
    14  C   -0.014877  -0.000022   0.000001  -0.000371   0.005919  -0.000196
    15  O    0.021284  -0.000241  -0.000001  -0.000000  -0.000006  -0.000569
    16  O    0.025584   0.000006   0.000000  -0.000000   0.000038  -0.000749
    17  O   -0.067128  -0.000006   0.000000  -0.000076   0.001759   0.000039
    18  O   -0.276838  -0.000087   0.000001  -0.000044   0.002522  -0.004214
    19  N    7.821815  -0.001875  -0.000002  -0.000460   0.008847   0.016086
    20  H   -0.001875   0.604302  -0.007292   0.000037  -0.000465   0.004910
    21  H   -0.000002  -0.007292   0.579100  -0.000345   0.000034  -0.000008
    22  H   -0.000460   0.000037  -0.000345   0.611302  -0.011435   0.000004
    23  H    0.008847  -0.000465   0.000034  -0.011435   0.636832   0.000226
    24  H    0.016086   0.004910  -0.000008   0.000004   0.000226   0.574114
    25  H   -0.001924   0.000171   0.000004  -0.000005   0.002404  -0.040402
    26  H   -0.016216  -0.000082   0.000004  -0.000000   0.000080  -0.004347
    27  H   -0.002705  -0.000000   0.000000  -0.000000  -0.000000  -0.000002
    28  H    0.330092   0.000007  -0.000000   0.000003  -0.000187  -0.000163
    29  H    0.000225   0.000000   0.000000  -0.000000   0.000000  -0.000000
    30  H   -0.000384   0.000000   0.000000  -0.000000   0.000006  -0.000004
    31  H   -0.000021  -0.000000   0.000000  -0.000000   0.000005  -0.000008
    32  H    0.001077   0.000000  -0.000000  -0.000000   0.000000  -0.000000
    33  H   -0.003149   0.000000  -0.000000   0.000000  -0.000000  -0.000000
    34  H    0.000951  -0.000000  -0.000000  -0.000000   0.000000  -0.000000
    35  H    0.001343  -0.000000   0.000000  -0.000000   0.000024  -0.000000
    36  H   -0.001177  -0.000000   0.000000  -0.000001   0.000632   0.000002
    37  H   -0.001806   0.000000   0.000000   0.000000  -0.000058  -0.000000
    38  N    0.000087   0.000055  -0.001459   0.050871   0.000052   0.000000
    39  N    0.000695   0.001457  -0.024249   0.030907   0.001314   0.000006
    40  N   -0.001100  -0.001215   0.014352  -0.096109  -0.001990   0.000004
              25         26         27         28         29         30
     1  C   -0.229956  -0.047904   0.000626   0.013104   0.000384   0.008698
     2  C   -0.065832   0.004975   0.000580  -0.005787  -0.000004   0.001528
     3  C   -0.015330  -0.000384   0.000056  -0.000864  -0.000001  -0.000232
     4  C   -0.000024  -0.001866   0.000002  -0.000157  -0.000011  -0.000011
     5  C    0.000122  -0.001406  -0.000039   0.001150  -0.000156   0.000463
     6  C    0.113276   0.001578  -0.000545   0.011649  -0.000708  -0.007092
     7  C    0.625557   0.076233  -0.006455  -0.017228  -0.001160  -0.014539
     8  C   -0.143253   0.250067   0.047465  -0.033767   0.000604   0.010418
     9  C    0.035999   0.007739  -0.006600   0.001078   0.001044   0.003077
    10  C   -0.004541   0.009474  -0.005722   0.005964  -0.004108  -0.012860
    11  C    0.001147  -0.001251   0.001663  -0.000793   0.022801  -0.072153
    12  C   -0.004991   0.000617  -0.000974   0.000689   0.419625   0.483788
    13  C   -0.000900  -0.000424   0.000712   0.000150   0.004479   0.003105
    14  C    0.003114  -0.000291  -0.000391   0.000913  -0.040779  -0.040892
    15  O   -0.000710  -0.000314   0.000503  -0.000876  -0.000018  -0.000351
    16  O    0.001122   0.005375   0.221060   0.000624  -0.000018  -0.000103
    17  O    0.001058   0.000179   0.000091  -0.008315   0.000026  -0.000082
    18  O    0.008434  -0.001958   0.000852   0.032296   0.000624  -0.010611
    19  N   -0.001924  -0.016216  -0.002705   0.330092   0.000225  -0.000384
    20  H    0.000171  -0.000082  -0.000000   0.000007   0.000000   0.000000
    21  H    0.000004   0.000004   0.000000  -0.000000   0.000000   0.000000
    22  H   -0.000005  -0.000000  -0.000000   0.000003  -0.000000  -0.000000
    23  H    0.002404   0.000080  -0.000000  -0.000187   0.000000   0.000006
    24  H   -0.040402  -0.004347  -0.000002  -0.000163  -0.000000  -0.000004
    25  H    0.535895   0.006135  -0.000008  -0.000333   0.000006   0.001436
    26  H    0.006135   0.561982  -0.000329  -0.008229   0.000000  -0.000000
    27  H   -0.000008  -0.000329   0.355168   0.000058   0.000000  -0.000000
    28  H   -0.000333  -0.008229   0.000058   0.395995  -0.000000   0.000002
    29  H    0.000006   0.000000   0.000000  -0.000000   0.547166  -0.024571
    30  H    0.001436  -0.000000  -0.000000   0.000002  -0.024571   0.621073
    31  H   -0.000125   0.000001  -0.000011   0.000000  -0.060678  -0.054263
    32  H    0.000000   0.000000   0.000000  -0.000001   0.000415   0.000137
    33  H   -0.000001  -0.000000   0.000001   0.000015   0.000106  -0.000379
    34  H   -0.000000   0.000000  -0.000027  -0.000002  -0.000010  -0.000004
    35  H   -0.000000  -0.000000  -0.000000  -0.000001   0.000421  -0.000252
    36  H    0.000270   0.000000  -0.000000  -0.000001  -0.000191   0.003094
    37  H    0.000002   0.000000   0.000000   0.000014   0.000109   0.000178
    38  N   -0.000001   0.000000  -0.000000   0.000001  -0.000000  -0.000000
    39  N   -0.000009   0.000004  -0.000000   0.000001  -0.000000  -0.000000
    40  N    0.000002   0.000005   0.000000   0.000001   0.000000  -0.000000
              31         32         33         34         35         36
     1  C   -0.021353  -0.000143   0.001743  -0.000310   0.000301   0.022053
     2  C    0.001630  -0.000044  -0.000032  -0.000065   0.000373   0.003475
     3  C   -0.000012  -0.000002   0.000008  -0.000003  -0.000000   0.000137
     4  C    0.000207   0.000002  -0.000006   0.000004   0.000161  -0.000343
     5  C    0.003238  -0.000009  -0.000314   0.000033   0.002577   0.001986
     6  C    0.015801   0.000260  -0.001793   0.000501  -0.003309  -0.019181
     7  C    0.032227   0.000357  -0.000308   0.000448   0.000976  -0.009293
     8  C   -0.006209  -0.002794  -0.002182  -0.000733   0.000261   0.001540
     9  C   -0.029371   0.001072  -0.002056   0.000658  -0.000316  -0.002271
    10  C    0.009736   0.001575   0.020904  -0.006617  -0.006109   0.010729
    11  C   -0.509980  -0.003213  -0.121258  -0.089574  -0.121227  -0.153102
    12  C    0.353495  -0.005392   0.041867  -0.026409   0.023826  -0.004805
    13  C   -0.146273   0.379425   0.457610   0.467758  -0.016027   0.001790
    14  C    0.229003  -0.018598  -0.014472   0.011709   0.449842   0.487489
    15  O    0.001935   0.000008   0.000005   0.000004   0.000001   0.000019
    16  O    0.002180   0.000108  -0.000157   0.001127  -0.000002  -0.000005
    17  O    0.002496   0.000447  -0.018712   0.002612   0.001777   0.001214
    18  O    0.069863   0.001865  -0.009805   0.005058   0.009647   0.000990
    19  N   -0.000021   0.001077  -0.003149   0.000951   0.001343  -0.001177
    20  H   -0.000000   0.000000   0.000000  -0.000000  -0.000000  -0.000000
    21  H    0.000000  -0.000000  -0.000000  -0.000000   0.000000   0.000000
    22  H   -0.000000  -0.000000   0.000000  -0.000000  -0.000000  -0.000001
    23  H    0.000005   0.000000  -0.000000   0.000000   0.000024   0.000632
    24  H   -0.000008  -0.000000  -0.000000  -0.000000  -0.000000   0.000002
    25  H   -0.000125   0.000000  -0.000001  -0.000000  -0.000000   0.000270
    26  H    0.000001   0.000000  -0.000000   0.000000  -0.000000   0.000000
    27  H   -0.000011   0.000000   0.000001  -0.000027  -0.000000  -0.000000
    28  H    0.000000  -0.000001   0.000015  -0.000002  -0.000001  -0.000001
    29  H   -0.060678   0.000415   0.000106  -0.000010   0.000421  -0.000191
    30  H   -0.054263   0.000137  -0.000379  -0.000004  -0.000252   0.003094
    31  H    1.313408  -0.001701   0.000243   0.003086   0.001752   0.002416
    32  H   -0.001701   0.603475  -0.054419  -0.024003   0.002068  -0.000040
    33  H    0.000243  -0.054419   0.557109  -0.021539  -0.000300  -0.000032
    34  H    0.003086  -0.024003  -0.021539   0.529173   0.000033  -0.000103
    35  H    0.001752   0.002068  -0.000300   0.000033   0.573149  -0.032776
    36  H    0.002416  -0.000040  -0.000032  -0.000103  -0.032776   0.578864
    37  H   -0.000630   0.000180   0.003724   0.000017  -0.030922  -0.030432
    38  N    0.000000  -0.000000  -0.000000   0.000000  -0.000000   0.000000
    39  N    0.000000  -0.000000  -0.000000   0.000000   0.000000   0.000000
    40  N   -0.000000   0.000000   0.000000  -0.000000  -0.000000  -0.000000
              37         38         39         40
     1  C   -0.007661   0.016281  -0.086939   0.009630
     2  C   -0.001097  -0.214197  -0.959045   1.123842
     3  C   -0.000070  -0.554186  -1.717031   1.986973
     4  C   -0.000334  -0.333884   2.355716  -1.266578
     5  C   -0.003196   0.998155   0.798312  -1.930384
     6  C    0.008983   0.078615  -0.239229   0.106275
     7  C    0.002813   0.010547  -0.014825   0.025593
     8  C   -0.001661  -0.000406  -0.003793   0.005163
     9  C    0.000604   0.000015  -0.000188   0.000812
    10  C    0.015794  -0.000029  -0.000192   0.000172
    11  C   -0.030074  -0.000055  -0.000458   0.000422
    12  C    0.010147   0.000003   0.000024  -0.000020
    13  C   -0.018660  -0.000014  -0.000045   0.000059
    14  C    0.411763   0.000015   0.000366  -0.000287
    15  O   -0.000001   0.000000   0.000003  -0.000005
    16  O   -0.000013   0.000000  -0.000000  -0.000001
    17  O   -0.010914  -0.000006   0.000002  -0.000012
    18  O   -0.003899   0.000007   0.000024  -0.000037
    19  N   -0.001806   0.000087   0.000695  -0.001100
    20  H    0.000000   0.000055   0.001457  -0.001215
    21  H    0.000000  -0.001459  -0.024249   0.014352
    22  H    0.000000   0.050871   0.030907  -0.096109
    23  H   -0.000058   0.000052   0.001314  -0.001990
    24  H   -0.000000   0.000000   0.000006   0.000004
    25  H    0.000002  -0.000001  -0.000009   0.000002
    26  H    0.000000   0.000000   0.000004   0.000005
    27  H    0.000000  -0.000000  -0.000000   0.000000
    28  H    0.000014   0.000001   0.000001   0.000001
    29  H    0.000109  -0.000000  -0.000000   0.000000
    30  H    0.000178  -0.000000  -0.000000  -0.000000
    31  H   -0.000630   0.000000   0.000000  -0.000000
    32  H    0.000180  -0.000000  -0.000000   0.000000
    33  H    0.003724  -0.000000  -0.000000   0.000000
    34  H    0.000017   0.000000   0.000000  -0.000000
    35  H   -0.030922  -0.000000   0.000000  -0.000000
    36  H   -0.030432   0.000000   0.000000  -0.000000
    37  H    0.499481  -0.000000  -0.000001   0.000001
    38  N   -0.000000  10.817807  -0.321930  -3.053470
    39  N   -0.000001  -0.321930   8.699371  -1.789380
    40  N    0.000001  -3.053470  -1.789380  11.571968
 Mulliken charges:
               1
     1  C    0.577784
     2  C   -0.173669
     3  C   -0.180798
     4  C   -0.772920
     5  C    0.416058
     6  C   -0.178817
     7  C   -0.206005
     8  C   -0.271404
     9  C    0.505668
    10  C    0.449065
    11  C    0.008594
    12  C   -0.072520
    13  C   -0.263814
    14  C   -0.359561
    15  O   -0.413318
    16  O   -0.464007
    17  O   -0.444307
    18  O   -0.295863
    19  N   -0.450283
    20  H    0.108531
    21  H    0.123637
    22  H    0.106067
    23  H    0.095600
    24  H    0.150973
    25  H    0.172194
    26  H    0.160556
    27  H    0.394970
    28  H    0.282899
    29  H    0.134376
    30  H    0.101782
    31  H   -0.212087
    32  H    0.117885
    33  H    0.167578
    34  H    0.146226
    35  H    0.142708
    36  H    0.137055
    37  H    0.187619
    38  N   -0.492877
    39  N    0.269110
    40  N    0.295315
 Sum of Mulliken charges =  -0.00000
 Mulliken charges with hydrogens summed into heavy atoms:
               1
     1  C    0.577784
     2  C   -0.065137
     3  C   -0.057161
     4  C   -0.772920
     5  C    0.522124
     6  C   -0.083217
     7  C    0.117161
     8  C   -0.110849
     9  C    0.505668
    10  C    0.449065
    11  C    0.008594
    12  C   -0.048449
    13  C    0.167876
    14  C    0.107821
    15  O   -0.413318
    16  O   -0.069036
    17  O   -0.444307
    18  O   -0.295863
    19  N   -0.167385
    38  N   -0.492877
    39  N    0.269110
    40  N    0.295315
 Electronic spatial extent (au):  <R**2>=           8409.2019
 Charge=             -0.0000 electrons
 Dipole moment (field-independent basis, Debye):
    X=             -3.3234    Y=              1.8463    Z=             -1.1233  Tot=              3.9643
 Quadrupole moment (field-independent basis, Debye-Ang):
   XX=           -140.0737   YY=           -129.4011   ZZ=           -133.0492
   XY=              8.8285   XZ=             -3.5925   YZ=             12.7629
 Traceless Quadrupole moment (field-independent basis, Debye-Ang):
   XX=             -5.8990   YY=              4.7735   ZZ=              1.1255
   XY=              8.8285   XZ=             -3.5925   YZ=             12.7629
 Octapole moment (field-independent basis, Debye-Ang**2):
  XXX=           -241.6162  YYY=              5.0417  ZZZ=              4.5942  XYY=            -31.6472
  XXY=             37.3197  XXZ=              0.8568  XZZ=            -17.0595  YZZ=             16.0286
  YYZ=              4.9078  XYZ=            -31.6963
 Hexadecapole moment (field-independent basis, Debye-Ang**3):
 XXXX=          -8699.0217 YYYY=          -2390.1521 ZZZZ=           -812.3491 XXXY=            145.8880
 XXXZ=           -174.1303 YYYX=            145.6267 YYYZ=             90.1743 ZZZX=             23.4491
 ZZZY=             34.7111 XXYY=          -1779.7453 XXZZ=          -1487.2683 YYZZ=           -547.0675
 XXYZ=            103.3331 YYXZ=            -75.5713 ZZXY=            -28.0522
 N-N= 1.833865557651D+03 E-N=-6.146580332066D+03  KE= 1.058144319005D+03
 Calling FoFJK, ICntrl=      2127 FMM=F ISym2X=0 I1Cent= 0 IOpClX= 0 NMat=1 NMatS=1 NMatT=0.
 ***** Axes restored to original set *****
 -------------------------------------------------------------------
 Center     Atomic                   Forces (Hartrees/Bohr)
 Number     Number              X              Y              Z
 -------------------------------------------------------------------
      1        6          -0.019482888    0.040267890    0.005379117
[...]
   21418 points will be used for fitting atomic charges
 Fitting point charges to electrostatic potential
 Charges from ESP fit, RMS=   0.00286 RRMS=   0.21060:
 ESP charges:
               1
     1  C    0.172619
     2  C   -0.191931
     3  C   -0.185114
     4  C    0.352710
     5  C   -0.266658
     6  C   -0.127991
     7  C   -0.365016
     8  C    0.398927
     9  C    0.551304
    10  C    0.783467
    11  C    0.679623
    12  C   -0.404706
    13  C   -0.417974
    14  C   -0.393527
    15  O   -0.525917
    16  O   -0.602771
    17  O   -0.600731
    18  O   -0.398046
    19  N   -0.619533
    20  H    0.122764
    21  H    0.148195
    22  H    0.137992
    23  H    0.120684
    24  H    0.111781
    25  H    0.096973
    26  H    0.026417
    27  H    0.442567
    28  H    0.295175
    29  H    0.091811
    30  H    0.100977
    31  H    0.103906
    32  H    0.088478
    33  H    0.126189
    34  H    0.087993
    35  H    0.084504
    36  H    0.074843
    37  H    0.119068
    38  N   -0.327757
    39  N    0.656150
    40  N   -0.547445
 Sum of ESP charges =   0.00000
 ESP charges with hydrogens summed into heavy atoms:
               1
     1  C    0.172619
     2  C   -0.069167
     3  C   -0.036919
     4  C    0.352710
     5  C   -0.128667
     6  C   -0.007307
     7  C   -0.156262
     8  C    0.425344
     9  C    0.551304
    10  C    0.783467
    11  C    0.679623
    12  C   -0.108013
    13  C   -0.115315
    14  C   -0.115112
    15  O   -0.525917
    16  O   -0.160204
    17  O   -0.600731
    18  O   -0.398046
    19  N   -0.324358
    38  N   -0.327757
    39  N    0.656150
    40  N   -0.547445
 Charge=   0.00000 Dipole=    -1.7775     1.3515    -0.6601 Tot=     2.3285
 -----------------------------------------------------------------

              Electrostatic Properties (Atomic Units)

 -----------------------------------------------------------------
    Center     Electric         -------- Electric Field --------
               Potential          X             Y             Z
 -----------------------------------------------------------------
    1 Atom    -14.741935      0.003025     -0.001055      0.001693
    2 Atom    -14.747175      0.000964     -0.008007      0.000957
    3 Atom    -14.748361     -0.005638     -0.004232     -0.000681
    4 Atom    -14.695506     -0.015539      0.003588     -0.002784
    5 Atom    -14.744423     -0.003317      0.007036     -0.000796
    6 Atom    -14.747559      0.004264      0.005793      0.001263
    7 Atom    -14.745561      0.000845     -0.001639      0.000963
    8 Atom    -14.680879      0.001069      0.003893     -0.007855
    9 Atom    -14.611632      0.007088      0.000886     -0.012641
   10 Atom    -14.602122      0.003896     -0.008392      0.008542
   11 Atom    -14.679341     -0.007566     -0.009205     -0.004625
   12 Atom    -14.766630      0.002177     -0.000636      0.003391
   13 Atom    -14.771268      0.003555      0.001113     -0.000815
   14 Atom    -14.769627     -0.000840      0.002930      0.002642
   15 Atom    -22.348245     -0.007955      0.012387     -0.027574
   16 Atom    -22.291180      0.015386     -0.017353      0.031682
   17 Atom    -22.378168      0.003595     -0.026856      0.018541
   18 Atom    -22.306307     -0.003315      0.026835     -0.019576
   19 Atom    -18.342990     -0.006445      0.000503     -0.001246
   20 Atom     -1.089910     -0.003251      0.014954     -0.001689
   21 Atom     -1.088842      0.011369      0.010213      0.001122
   22 Atom     -1.081835      0.003185     -0.015023      0.001518
   23 Atom     -1.092519     -0.011732     -0.011553     -0.001306
   24 Atom     -1.103634     -0.000570      0.013644     -0.007803
   25 Atom     -1.105883     -0.007864     -0.011306     -0.009192
   26 Atom     -1.067786      0.007168      0.011458      0.008131
   27 Atom     -0.941466     -0.019377      0.009010     -0.005032
   28 Atom     -1.005259      0.013781     -0.001168      0.016851
   29 Atom     -1.107063     -0.009395     -0.010095     -0.006543
   30 Atom     -1.112260      0.010815      0.004446     -0.010358
   31 Atom     -1.112687     -0.008229      0.012619      0.004447
   32 Atom     -1.109846     -0.009643     -0.009978     -0.005871
   33 Atom     -1.120299      0.007222     -0.006625      0.012779
   34 Atom     -1.114335     -0.007857      0.012620      0.004414
   35 Atom     -1.108437     -0.008607     -0.010510     -0.006645
   36 Atom     -1.111928      0.010645      0.004781     -0.010256
   37 Atom     -1.118501      0.007187     -0.006549      0.012962
   38 Atom    -18.303699      0.010402     -0.025308      0.003270
   39 Atom    -18.190192     -0.000164     -0.010347      0.000599
   40 Atom    -18.319595      0.013639      0.034249      0.000120
 -----------------------------------------------------------------
 -----------------------------------------------------
    Center         ---- Electric Field Gradient ----
                     XX            YY            ZZ
 -----------------------------------------------------
    1 Atom     -511.572058   -511.488244   -511.970987
    2 Atom     -511.599331   -511.650261   -512.098401
    3 Atom     -511.558286   -511.611382   -512.007859
    4 Atom     -511.807144   -511.337080   -511.855025
    5 Atom     -511.499478   -511.546191   -511.904596
    6 Atom     -511.655371   -511.632777   -512.128269
    7 Atom     -511.156442   -511.021189   -511.170642
    8 Atom     -511.047058   -511.247577   -511.061744
    9 Atom     -512.113972   -512.546416   -512.208597
   10 Atom     -511.996657   -511.591934   -511.888408
   11 Atom     -511.308356   -511.424823   -511.144051
   12 Atom     -511.179799   -511.184315   -511.223915
   13 Atom     -511.168072   -511.124612   -511.140166
   14 Atom     -511.165224   -511.180365   -511.104593
   15 Atom    -1264.595291  -1266.486844  -1265.889845
   16 Atom    -1265.576382  -1263.605208  -1264.335982
   17 Atom    -1265.068967  -1265.603728  -1265.275275
   18 Atom    -1264.323723  -1264.044940  -1264.527566
   19 Atom     -829.651221   -830.447471   -830.002397
   20 Atom       -1.708799     -2.110345     -1.679232
   21 Atom       -1.912058     -1.886260     -1.663090
   22 Atom       -1.702604     -2.100936     -1.665604
   23 Atom       -1.916157     -1.905138     -1.675465
   24 Atom       -1.683538     -2.011374     -1.793405
   25 Atom       -1.791745     -1.887507     -1.814954
   26 Atom       -1.777826     -1.908409     -1.804427
   27 Atom       -1.951723     -1.516183     -1.467171
   28 Atom       -1.788660     -1.580026     -1.895886
   29 Atom       -1.844324     -1.875613     -1.760015
   30 Atom       -1.888558     -1.710973     -1.879672
   31 Atom       -1.800430     -1.961042     -1.714478
   32 Atom       -1.858675     -1.867352     -1.744955
   33 Atom       -1.751421     -1.741968     -1.952996
   34 Atom       -1.794441     -1.969334     -1.713465
   35 Atom       -1.820436     -1.890512     -1.757349
   36 Atom       -1.890657     -1.722322     -1.867772
   37 Atom       -1.760959     -1.744054     -1.942755
   38 Atom     -836.383399   -835.711577   -835.629856
   39 Atom     -832.748839   -832.596163   -832.836198
   40 Atom     -832.259919   -833.017790   -831.848816
 -----------------------------------------------------
 -----------------------------------------------------
    Center         ---- Electric Field Gradient ----
                     XY            XZ            YZ
 -----------------------------------------------------
    1 Atom        0.027456      0.053947     -0.027980
    2 Atom        0.019410      0.082866     -0.033651
    3 Atom       -0.011682      0.075470     -0.029501
    4 Atom        0.128062     -0.001120     -0.013029
    5 Atom       -0.013776      0.070314     -0.026686
    6 Atom       -0.019842      0.083377     -0.032009
    7 Atom        0.047508      0.055595     -0.010034
    8 Atom        0.049541      0.004392      0.189061
    9 Atom       -0.270024      0.106669     -0.227365
   10 Atom        0.100563      0.128600     -0.160622
   11 Atom       -0.331138     -0.181292     -0.218015
   12 Atom        0.012420     -0.036899      0.034949
   13 Atom       -0.029909      0.071348     -0.009497
   14 Atom        0.029422      0.042282     -0.043548
   15 Atom       -0.511821     -0.850981      0.043626
   16 Atom        0.582270      0.684763      0.030482
   17 Atom        0.642357      0.691325      0.713567
   18 Atom       -0.697574     -1.230665     -0.376610
   19 Atom       -0.395969     -0.611029      0.339574
   20 Atom        0.093594     -0.012465      0.047169
   21 Atom       -0.224321     -0.024979     -0.020431
   22 Atom        0.092948     -0.013149      0.043589
   23 Atom       -0.222877     -0.026337     -0.022876
   24 Atom        0.013475     -0.004963      0.188873
   25 Atom       -0.144202     -0.115837     -0.164113
   26 Atom       -0.140799     -0.107052     -0.152954
   27 Atom        0.247437     -0.119935      0.067210
   28 Atom       -0.005064     -0.316423      0.029297
   29 Atom       -0.181859     -0.119446     -0.123252
   30 Atom       -0.083671      0.202932      0.086855
   31 Atom        0.191598      0.063474     -0.096220
   32 Atom       -0.190759     -0.107534     -0.115114
   33 Atom        0.079766     -0.150864      0.145990
   34 Atom        0.184313      0.068285     -0.100056
   35 Atom       -0.173229     -0.110624     -0.138545
   36 Atom       -0.090766      0.202894      0.088245
   37 Atom        0.085003     -0.156195      0.144396
   38 Atom       -0.307481     -0.108420     -0.045445
   39 Atom       -0.213697      0.028750     -0.050312
   40 Atom        0.647388     -0.112983      0.180929
 -----------------------------------------------------
 -----------------------------------------------------
    Center         ---- Electric Field Gradient ----
                   ----       Eigenvalues       ----
 -----------------------------------------------------
    1 Atom     -511.980157   -511.571366   -511.479767
    2 Atom     -512.114643   -511.650354   -511.582996
    3 Atom     -512.021998   -511.613487   -511.542042
    4 Atom     -511.855613   -511.839482   -511.304153
    5 Atom     -511.918008   -511.549837   -511.482420
    6 Atom     -512.144099   -511.661563   -511.610756
    7 Atom     -511.227203   -511.115255   -511.005815
    8 Atom     -511.370237   -511.050452   -510.935689
    9 Atom     -512.729713   -512.275630   -511.863643
   10 Atom     -512.138466   -511.820825   -511.517708
   11 Atom     -511.821486   -511.030652   -511.025092
   12 Atom     -511.262091   -511.170137   -511.155801
   13 Atom     -511.229714   -511.134528   -511.068608
   14 Atom     -511.231877   -511.142874   -511.075430
   15 Atom    -1266.675551  -1266.218489  -1264.077939
   16 Atom    -1265.994882  -1264.134168  -1263.388522
   17 Atom    -1266.181848  -1265.837096  -1263.929026
   18 Atom    -1265.957946  -1263.839228  -1263.099055
   19 Atom     -830.640571   -830.457221   -829.003296
   20 Atom       -2.136288     -1.688322     -1.673766
   21 Atom       -2.126089     -1.674841     -1.660478
   22 Atom       -2.126034     -1.682517     -1.660593
   23 Atom       -2.136225     -1.687969     -1.672565
   24 Atom       -2.120908     -1.686223     -1.681186
   25 Atom       -2.122685     -1.688365     -1.683155
   26 Atom       -2.111629     -1.696470     -1.682563
   27 Atom       -2.093535     -1.440879     -1.400664
   28 Atom       -2.163832     -1.587261     -1.513479
   29 Atom       -2.123495     -1.682529     -1.673928
   30 Atom       -2.122418     -1.682780     -1.674005
   31 Atom       -2.121155     -1.681826     -1.672969
   32 Atom       -2.119964     -1.680175     -1.670843
   33 Atom       -2.109034     -1.671191     -1.666160
   34 Atom       -2.121790     -1.681788     -1.673663
   35 Atom       -2.119093     -1.679142     -1.670062
   36 Atom       -2.122473     -1.682711     -1.675567
   37 Atom       -2.109414     -1.671676     -1.666679
   38 Atom     -836.518422   -835.614728   -835.591683
   39 Atom     -832.899955   -832.844009   -832.437235
   40 Atom     -833.417947   -831.889623   -831.818955
 -----------------------------------------------------
 -----------------------------------------------------
    Center         ---- Electric Field Gradient ----
                       ( tensor representation )
                   3XX-RR        3YY-RR        3ZZ-RR
 -----------------------------------------------------
    1 Atom        0.105038      0.188852     -0.293890
    2 Atom        0.183333      0.132403     -0.315737
    3 Atom        0.167556      0.114460     -0.282016
    4 Atom       -0.140728      0.329336     -0.188609
    5 Atom        0.150610      0.103898     -0.254508
    6 Atom        0.150102      0.172695     -0.322797
    7 Atom       -0.040351      0.094902     -0.054551
    8 Atom        0.071735     -0.128784      0.057049
    9 Atom        0.175689     -0.256754      0.081065
   10 Atom       -0.170991      0.233732     -0.062741
   11 Atom       -0.015946     -0.132413      0.148359
   12 Atom        0.016211      0.011695     -0.027906
   13 Atom       -0.023789      0.019671      0.004118
   14 Atom       -0.015163     -0.030304      0.045468
   15 Atom        1.062036     -0.829518     -0.232518
   16 Atom       -1.070524      0.900649      0.169875
   17 Atom        0.247023     -0.287738      0.040715
   18 Atom       -0.024980      0.253803     -0.228823
   19 Atom        0.382475     -0.413775      0.031299
   20 Atom        0.123993     -0.277553      0.153560
   21 Atom       -0.091589     -0.065791      0.157380
   22 Atom        0.120444     -0.277888      0.157444
   23 Atom       -0.083904     -0.072884      0.156788
   24 Atom        0.145901     -0.181935      0.036034
   25 Atom        0.039657     -0.056105      0.016448
   26 Atom        0.052395     -0.078188      0.025793
   27 Atom       -0.306697      0.128843      0.177855
   28 Atom       -0.033803      0.174831     -0.141028
   29 Atom       -0.017673     -0.048962      0.066635
   30 Atom       -0.062157      0.115428     -0.053271
   31 Atom        0.024886     -0.135725      0.110839
   32 Atom       -0.035014     -0.043692      0.078706
   33 Atom        0.064041      0.073494     -0.137535
   34 Atom        0.031306     -0.143587      0.112282
   35 Atom        0.002330     -0.067746      0.065416
   36 Atom       -0.063740      0.104595     -0.040855
   37 Atom        0.054964      0.071868     -0.126832
   38 Atom       -0.475122      0.196700      0.278421
   39 Atom       -0.021772      0.130904     -0.109132
   40 Atom        0.115589     -0.642282      0.526693
 -----------------------------------------------------
 -----------------------------------------------------
    Center         ---- Electric Field Gradient ----
                       ( tensor representation )
                   ----       Eigenvalues       ----
 -----------------------------------------------------
    1 Atom       -0.303060      0.105731      0.197330
    2 Atom       -0.331979      0.132310      0.199668
    3 Atom       -0.296156      0.112356      0.183800
    4 Atom       -0.189197     -0.173066      0.362263
    5 Atom       -0.267920      0.100252      0.167668
    6 Atom       -0.338626      0.143909      0.194717
    7 Atom       -0.111112      0.000836      0.110276
    8 Atom       -0.251444      0.068340      0.183104
    9 Atom       -0.440051      0.014032      0.426018
   10 Atom       -0.312800      0.004842      0.307958
   11 Atom       -0.529076      0.261758      0.267318
   12 Atom       -0.066081      0.025873      0.040209
   13 Atom       -0.085430      0.009755      0.075675
   14 Atom       -0.081817      0.007187      0.074630
   15 Atom       -1.018224     -0.561163      1.579387
   16 Atom       -1.489025      0.371690      1.117335
   17 Atom       -0.865858     -0.521106      1.386964
   18 Atom       -1.659203      0.459515      1.199688
   19 Atom       -0.606875     -0.423525      1.030400
   20 Atom       -0.303497      0.144470      0.159026
   21 Atom       -0.305619      0.145628      0.159991
   22 Atom       -0.302986      0.140531      0.162455
   23 Atom       -0.303972      0.144284      0.159688
   24 Atom       -0.291469      0.143216      0.148253
   25 Atom       -0.291283      0.143036      0.148246
   26 Atom       -0.281408      0.133751      0.147658
   27 Atom       -0.448509      0.204147      0.244362
   28 Atom       -0.408974      0.167596      0.241378
   29 Atom       -0.296844      0.144121      0.152723
   30 Atom       -0.296017      0.143621      0.152396
   31 Atom       -0.295838      0.143491      0.152347
   32 Atom       -0.296303      0.143486      0.152817
   33 Atom       -0.293573      0.144271      0.149301
   34 Atom       -0.296043      0.143959      0.152084
   35 Atom       -0.296327      0.143623      0.152704
   36 Atom       -0.295556      0.144206      0.151350
   37 Atom       -0.293491      0.144247      0.149244
   38 Atom       -0.610144      0.293549      0.316595
   39 Atom       -0.172889     -0.116942      0.289831
   40 Atom       -1.042439      0.485886      0.556553
 -----------------------------------------------------
 Unable to Open any file for archive entry.
 1\1\GINC-SL001\SP\RM062X\Gen\C14H18N4O4\AJR348\12-Nov-2022\0\\# M062X/
 def2TZVP extrabasis empiricaldispersion=GD3 int=(grid=ultrafine) prop=
 (efg) pop=chelpg guess=read geom=check\\Molecule Name\\0,1\C,0,2.97589
 74807,-0.0191561875,10.1231951034\C,0,2.9792238785,-1.2971550427,9.544
 2441438\C,0,4.1199822617,-2.0970389047,9.5576475401\C,0,5.2929150177,-
 1.6237839122,10.1588394442\C,0,5.3113424889,-0.3501844407,10.745421394
 2\C,0,4.1596535615,0.4355970149,10.7221680003\C,0,1.7512520325,0.86033
 7588,10.0600942204\C,0,1.7658701769,1.7779194304,8.8128645116\C,0,0.45
 73841102,2.5716697352,8.7085462599\C,0,3.2508715215,3.6621287826,9.557
 6014605\C,0,2.2655780987,4.9770702477,11.4046178758\C,0,0.9077148227,4
 .8365808853,12.0940587481\C,0,2.3838528867,6.3237775418,10.6872073814\
 C,0,3.4118350714,4.7357032206,12.3902185748\O,0,-0.5596294754,2.296602
 668,9.3070503568\O,0,0.5352552377,3.5778761292,7.8102098823\O,0,4.3071
 78398,4.273492145,9.515705615\O,0,2.2268494626,3.8848188347,10.4124731
 595\N,0,2.9405638727,2.6280259085,8.715497619\H,0,2.0718762835,-1.6774
 554728,9.0810930065\H,0,4.1156318155,-3.0871929709,9.1138882658\H,0,6.
 2137463002,0.0287618154,11.2165912611\H,0,4.1858092474,1.4212514979,11
 .1776759444\H,0,0.8395228782,0.2582062957,10.0253388783\H,0,1.68112648
 42,1.4967035717,10.9453824071\H,0,1.7841273033,1.1433594288,7.91768157
 1\H,0,-0.3394977084,4.0007939195,7.7805042417\H,0,3.6904125202,2.36039
 74571,8.0971276371\H,0,0.8008568736,5.6049972007,12.8656039604\H,0,0.8
 137528223,3.8532040304,12.5640818167\H,0,0.0950086192,4.9484029772,11.
 3706664454\H,0,2.2802037384,7.1328716315,11.4175966047\H,0,3.348323769
 5,6.419688304,10.1870793369\H,0,1.5861553124,6.4261254973,9.9447068539
 \H,0,3.360029669,5.4760474676,13.1951631468\H,0,3.3223640291,3.7399075
 159,12.8369694921\H,0,4.3798238215,4.8195479607,11.8945962882\N,0,8.48
 89780861,-1.89823681,11.1039832059\N,0,7.4639544931,-2.1253390371,10.6
 563772897\N,0,6.4098027367,-2.5029239249,10.1309310552\\Version=ES64L-
 G16RevC.01\State=1-A\HF=-1064.2144738\RMSD=1.502e-09\Dipole=-0.8926163
 ,0.2614556,-0.105685\Quadrupole=-8.3300968,2.3629466,5.9671502,-2.6138
 88,3.2224543,5.8614405\PG=C01 [X(C14H18N4O4)]\\@
 The archive entry for this job was punched.


 MYSTERY IS THE WISDOM OF BLOCKHEADS... HORACE WALPOLE 
 Job cpu time:       0 days  0 hours 17 minutes 31.3 seconds.
 Elapsed time:       0 days  0 hours  2 minutes 13.1 seconds.
 File lengths (MBytes):  RWF=    366 Int=      0 D2E=      0 Chk=     62 Scr=      2
 Normal termination of Gaussian 16 at Sat Nov 12 19:57:30 2022.
